<?xml version="1.0"?>
<VTKFile type="UnstructuredGrid"  version="0.1"  >
<UnstructuredGrid>
<Piece  NumberOfPoints="8272" NumberOfCells="16140">
<Points>
<DataArray  type="Float64"  NumberOfComponents="3"  format="ascii">-0.999877856940653 0.01562917783400803 0  -0.999877856940653 -0.01562917783400779 0  -0.9989008914857115 -0.04687226246994006 0  -0.9969479151539236 -0.07806954893071458 0  -0.994020836168776 -0.1091905548219597 0  -0.9901225145346509 -0.140204872281886 0  -0.985256759242359 -0.1710821976923499 0  -0.979428324547432 -0.2017923612880579 0  -0.9726429053248131 -0.2323053566349829 0  -0.9649071315044797 -0.2625913699491981 0  -0.9562285615934407 -0.2926208092274699 0  -0.9466156752904342 -0.3223643331611536 0  -0.9360778652005416 -0.3517928798051443 0  -0.9246254276578175 -0.3808776949738565 0  -0.912269552664897 -0.4095903603365061 0  -0.8990223129594145 -0.4379028211842264 0  -0.8848966522179168 -0.4657874138418977 0  -0.8699063724087903 -0.4932168926979072 0  -0.8540661203065708 -0.520164456825418 0  -0.8373913731808008 -0.5466037761691488 0  -0.8198984236734248 -0.5725090172720717 0  -0.8016043638794972 -0.5978548685168891 0  -0.7825270686467568 -0.6226165648576288 0  -0.7626851781103819 -0.6467699120171987 0  -0.7420980794800013 -0.6702913101272414 0  -0.7207858880967426 -0.6931577767872117 0  -0.6987694277788415 -0.7153469695201276 0  -0.6760702104750047 -0.7368372076030654 0  -0.6527104152454097 -0.7576074932510666 0  -0.6287128665908849 -0.777637532133752 0  -0.6041010121514363 -0.7969077532046042 0  -0.5788988997959114 -0.8153993278235416 0  -0.5531311541251993 -0.8330941881540916 0  -0.5268229524119011 -0.8499750448172039 0  -0.5000000000000004 -0.8660254037844384 0  -0.4726885051885656 -0.8812295824940283 0  -0.4449151536240167 -0.895572725174074 0  -0.4167070822259868 -0.9090408173578921 0  -0.3880918526722498 -0.9216206995773374 0  -0.3590974244686246 -0.933300080220719 0  -0.3297521276301665 -0.9440675475427478 0  -0.3000846350003414 -0.9539125808147788 0  -0.2701239342352219 -0.9628255606044562 0  -0.2398992994800976 -0.9707977781747126 0  -0.2094402627661449 -0.977821443992945 0  -0.1787765851551298 -0.9838896953420493 0  -0.1479382276603303 -0.9889966030258751 0  -0.1169553219720827 -0.9931371771625541 0  -0.08585814101656615 -0.9963073720600383 0  -0.05467706937658603 -0.9985040901690829 0  -0.02344257360326047 -0.9997251851098159 0  0.007814827552383885 -0.9999694637689326 0  0.03906459295881858 -0.9992366874654682 0  0.07027618894529319 -0.9975275721840101 0  0.101419119135812 -0.9948437878751196 0  0.1324629542466875 -0.991187956823649 0  0.1633773618185298 -0.9865636510865465 0  0.1941321358536273 -0.9809753890026542 0  0.2246972263297716 -0.9744286307779074 0  0.2550427685616763 -0.9669297731502506 0  0.2851391123813071 -0.9584861431394824 0  0.3149568511086103 -0.9491059908881351 0  0.3444668502843322 -0.9387984816003867 0  0.3736402761368591 -0.927573686586878 0  0.4024486237552531 -0.9154425734241896 0  0.4308637449409699 -0.9024169952385886 0  0.4588578757110361 -0.8885096791245188 0  0.4864036634258114 -0.8737342137091519 0  0.5134741935148417 -0.8581050358751444 0  0.5400430157746755 -0.841637416654579 0  0.566084170212953 -0.8243474463078735 0  0.5915722124135223 -0.8062520186022299 0  0.6164822383977913 -0.7873688143049919 0  0.6407899089580255 -0.7677162839080369 0  0.6644714734388212 -0.7473136296000775 0  0.6875037929435054 -0.7261807865044996 0  0.7098643629428029 -0.7043384032010527 0  0.7315313352636693 -0.6818078215504374 0  0.7524835394368069 -0.6586110558415 0  0.7727005033820112 -0.6347707712814024 0  0.7921624734111292 -0.6103102618497922 0  0.8108504335290849 -0.5852534275386133 0  0.8287461240141216 -0.5596247509997839 0  0.8458320592590973 -0.5334492736235703 0  0.8620915448564062 -0.5067525710710259 0  0.8775086939098309 -0.4795607282843985 0  0.8920684425573863 -0.4519003139999344 0  0.9057565646899908 -0.423798354787966 0  0.91855968585158 -0.3952823086456649 0  0.9304652963070865 -0.3663800381682464 0  0.9414617632655112 -0.3371197833248509 0  0.9515383422461453 -0.3075301338657036 0  0.9606851875768402 -0.2776400013875007 0  0.9688933620140637 -0.2474785910843287 0  0.9761548454753451 -0.2170753732117144 0  0.982462542875576 -0.1864600542916819 0  0.9878102910595093 -0.1556625480869676 0  0.9921928648236853 -0.1247129463727333 0  0.9956059820218981 -0.09364148953435038 0  0.998046307749216 -0.06247853701998218 0  0.9995114576004659 -0.03125453767682462 0  1 0 0  0.9995114576004659 0.03125453767682429 0  0.998046307749216 0.06247853701998265 0  0.9956059820218981 0.09364148953435077 0  0.9921928648236853 0.1247129463727328 0  0.9878102910595095 0.155662548086967 0  0.9824625428755761 0.1864600542916812 0  0.9761548454753453 0.2170753732117136 0  0.9688933620140637 0.2474785910843287 0  0.9606851875768402 0.2776400013875006 0  0.9515383422461454 0.3075301338657034 0  0.9414617632655113 0.3371197833248507 0  0.9304652963070866 0.3663800381682462 0  0.9185596858515798 0.3952823086456654 0  0.9057565646899906 0.4237983547879663 0  0.8920684425573865 0.4519003139999338 0  0.8775086939098312 0.4795607282843979 0  0.8620915448564065 0.5067525710710252 0  0.8458320592590973 0.5334492736235703 0  0.8287461240141216 0.5596247509997838 0  0.810850433529085 0.5852534275386132 0  0.7921624734111294 0.6103102618497921 0  0.7727005033820115 0.6347707712814021 0  0.7524835394368066 0.6586110558415004 0  0.731531335263669 0.6818078215504377 0  0.7098643629428032 0.7043384032010522 0  0.6875037929435059 0.7261807865044991 0  0.6644714734388218 0.7473136296000771 0  0.6407899089580261 0.7677162839080363 0  0.6164822383977913 0.7873688143049919 0  0.5915722124135225 0.8062520186022297 0  0.5660841702129533 0.8243474463078734 0  0.5400430157746758 0.8416374166545789 0  0.5134741935148419 0.8581050358751443 0  0.4864036634258112 0.8737342137091521 0  0.4588578757110356 0.8885096791245191 0  0.4308637449409705 0.9024169952385883 0  0.4024486237552537 0.9154425734241893 0  0.3736402761368599 0.9275736865868777 0  0.344466850284333 0.9387984816003864 0  0.3149568511086103 0.9491059908881351 0  0.2851391123813073 0.9584861431394823 0  0.2550427685616765 0.9669297731502506 0  0.2246972263297718 0.9744286307779073 0  0.1941321358536277 0.9809753890026541 0  0.1633773618185302 0.9865636510865465 0  0.1324629542466882 0.9911879568236489 0  0.1014191191358116 0.9948437878751196 0  0.07027618894529299 0.9975275721840101 0  0.03906459295881949 0.9992366874654682 0  0.007814827552383908 0.9999694637689326 0  -0.02344257360326044 0.9997251851098159 0  -0.05467706937658601 0.9985040901690829 0  -0.08585814101656591 0.9963073720600383 0  -0.1169553219720823 0.9931371771625542 0  -0.14793822766033 0.9889966030258751 0  -0.1787765851551293 0.9838896953420494 0  -0.2094402627661442 0.9778214439929452 0  -0.2398992994800977 0.9707977781747126 0  -0.2701239342352221 0.9628255606044562 0  -0.3000846350003405 0.953912580814779 0  -0.3297521276301665 0.9440675475427478 0  -0.3590974244686244 0.9333000802207191 0  -0.3880918526722498 0.9216206995773374 0  -0.4167070822259866 0.9090408173578922 0  -0.4449151536240161 0.8955727251740744 0  -0.4726885051885654 0.8812295824940284 0  -0.4999999999999998 0.8660254037844388 0  -0.5268229524119005 0.8499750448172043 0  -0.5531311541251993 0.8330941881540916 0  -0.5788988997959115 0.8153993278235415 0  -0.6041010121514356 0.7969077532046046 0  -0.6287128665908847 0.7776375321337522 0  -0.6527104152454094 0.7576074932510668 0  -0.6760702104750045 0.7368372076030656 0  -0.6987694277788417 0.7153469695201276 0  -0.7207858880967422 0.6931577767872122 0  -0.7420980794800012 0.6702913101272416 0  -0.7626851781103818 0.6467699120171988 0  -0.7825270686467567 0.6226165648576291 0  -0.8016043638794973 0.5978548685168888 0  -0.8198984236734244 0.5725090172720723 0  -0.8373913731808004 0.5466037761691493 0  -0.8540661203065709 0.5201644568254178 0  -0.8699063724087902 0.4932168926979075 0  -0.8848966522179167 0.4657874138418979 0  -0.8990223129594146 0.4379028211842262 0  -0.9122695526648966 0.4095903603365067 0  -0.9246254276578172 0.3808776949738572 0  -0.9360778652005417 0.3517928798051441 0  -0.9466156752904341 0.3223643331611538 0  -0.9562285615934408 0.2926208092274696 0  -0.9649071315044796 0.2625913699491987 0  -0.972642905324813 0.2323053566349835 0  -0.9794283245474321 0.2017923612880577 0  -0.9852567592423589 0.1710821976923501 0  -0.9901225145346509 0.1402048722818858 0  -0.994020836168776 0.1091905548219599 0  -0.9969479151539234 0.07806954893071527 0  -0.9989008914857115 0.04687226246993987 0  -2.220446049250313e-16 -2.775557561562891e-17 0  0.495121732950537 0.0701109997129428 0  0.2894848084580966 -0.4077494676791992 0  0.1199643025469755 0.4854581844351878 0  -0.208321484723656 -0.4545351034255543 0  -0.3961296211893942 0.3051924080593067 0  -0.5299914253366359 -0.1353725150479268 0  0.4752961487807781 0.4293056229008687 0  -0.2047098615563837 0.6168824564798706 0  0.6011920857205356 -0.258710020963746 0  0.0569948451446296 -0.6613744918616201 0  -0.6692240620231462 0.1488207159953114 0  -0.5189469831006014 -0.4542082352013384 0  0.2628725907322074 0.2374365573913091 0  -0.2401550419600574 -0.1649389566433385 0  -0.09845826576625226 0.2818821948633727 0  0.6858952859875964 0.2577703061600073 0  0.3286942078074945 0.6539539179245708 0  -0.4695280106517326 0.5625311736173001 0  0.3601016434076746 -0.1549619596263037 0  0.03198396054351801 0.734863271881292 0  0.3178984447333445 -0.6671659169583799 0  0.7366827444127025 -0.0334852664759817 0  0.5307885381256084 -0.5119436070319449 0  -0.1971557805221339 -0.7137952013112341 0  0.02707361228503496 -0.2874145797437222 0  -0.2633657927342306 0.08829983271327729 0  -0.7131869357612641 -0.2808245055268228 0  -0.645382683008709 0.3923639881917191 0  -0.7382302095042413 -0.06119015402793401 0  -0.3637781125902604 -0.5911007325550353 0  -0.4737791630419315 0.06837034373019976 0  0.2949710730050231 0.0371449
[...]
<PointData  Scalars="f_17"> 
<DataArray  type="Float64"  Name="f_17"  format="ascii">0.0000000000000000e+00  0.0000000000000000e+00  0.0000000000000000e+00  0.0000000000000000e+00  0.0000000000000000e+00  0.0000000000000000e+00  0.0000000000000000e+00  0.0000000000000000e+00  0.0000000000000000e+00  0.0000000000000000e+00  0.0000000000000000e+00  0.0000000000000000e+00  0.0000000000000000e+00  0.0000000000000000e+00  0.0000000000000000e+00  0.0000000000000000e+00  0.0000000000000000e+00  0.0000000000000000e+00  0.0000000000000000e+00  0.0000000000000000e+00  0.0000000000000000e+00  0.0000000000000000e+00  0.0000000000000000e+00  0.0000000000000000e+00  0.0000000000000000e+00  0.0000000000000000e+00  0.0000000000000000e+00  0.0000000000000000e+00  0.0000000000000000e+00  0.0000000000000000e+00  0.0000000000000000e+00  0.0000000000000000e+00  0.0000000000000000e+00  0.0000000000000000e+00  0.0000000000000000e+00  0.0000000000000000e+00  0.0000000000000000e+00  0.0000000000000000e+00  0.0000000000000000e+00  0.0000000000000000e+00  0.0000000000000000e+00  0.0000000000000000e+00  0.0000000000000000e+00  0.0000000000000000e+00  0.0000000000000000e+00  0.0000000000000000e+00  0.0000000000000000e+00  0.0000000000000000e+00  0.0000000000000000e+00  0.0000000000000000e+00  0.0000000000000000e+00  0.0000000000000000e+00  0.0000000000000000e+00  0.0000000000000000e+00  0.0000000000000000e+00  0.0000000000000000e+00  0.0000000000000000e+00  0.0000000000000000e+00  0.0000000000000000e+00  0.0000000000000000e+00  0.0000000000000000e+00  0.0000000000000000e+00  0.0000000000000000e+00  0.0000000000000000e+00  0.0000000000000000e+00  0.0000000000000000e+00  0.0000000000000000e+00  0.0000000000000000e+00  0.0000000000000000e+00  0.0000000000000000e+00  0.0000000000000000e+00  0.0000000000000000e+00  0.0000000000000000e+00  0.0000000000000000e+00  0.0000000000000000e+00  0.0000000000000000e+00  0.0000000000000000e+00  0.0000000000000000e+00  0.0000000000000000e+00  0.0000000000000000e+00  0.0000000000000000e+00  0.0000000000000000e+00  0.0000000000000000e+00  0.0000000000000000e+00  0.0000000000000000e+00  0.0000000000000000e+00  0.0000000000000000e+00  0.0000000000000000e+00  0.0000000000000000e+00  0.0000000000000000e+00  0.0000000000000000e+00  0.0000000000000000e+00  0.0000000000000000e+00  0.0000000000000000e+00  0.0000000000000000e+00  0.0000000000000000e+00  0.0000000000000000e+00  0.0000000000000000e+00  0.0000000000000000e+00  0.0000000000000000e+00  0.0000000000000000e+00  0.0000000000000000e+00  0.0000000000000000e+00  0.0000000000000000e+00  0.0000000000000000e+00  0.0000000000000000e+00  0.0000000000000000e+00  0.0000000000000000e+00  0.0000000000000000e+00  0.0000000000000000e+00  0.0000000000000000e+00  0.0000000000000000e+00  0.0000000000000000e+00  0.0000000000000000e+00  0.0000000000000000e+00  0.0000000000000000e+00  0.0000000000000000e+00  0.0000000000000000e+00  0.0000000000000000e+00  0.0000000000000000e+00  0.0000000000000000e+00  0.0000000000000000e+00  0.0000000000000000e+00  0.0000000000000000e+00  0.0000000000000000e+00  0.0000000000000000e+00  0.0000000000000000e+00  0.0000000000000000e+00  0.0000000000000000e+00  0.0000000000000000e+00  0.0000000000000000e+00  0.0000000000000000e+00  0.0000000000000000e+00  0.0000000000000000e+00  0.0000000000000000e+00  0.0000000000000000e+00  0.0000000000000000e+00  0.0000000000000000e+00  0.0000000000000000e+00  0.0000000000000000e+00  0.0000000000000000e+00  0.0000000000000000e+00  0.0000000000000000e+00  0.0000000000000000e+00  0.0000000000000000e+00  0.0000000000000000e+00  0.0000000000000000e+00  0.0000000000000000e+00  0.0000000000000000e+00  0.0000000000000000e+00  0.0000000000000000e+00  0.0000000000000000e+00  0.0000000000000000e+00  0.0000000000000000e+00  0.0000000000000000e+00  0.0000000000000000e+00  0.0000000000000000e+00  0.0000000000000000e+00  0.0000000000000000e+00  0.0000000000000000e+00  0.0000000000000000e+00  0.0000000000000000e+00  0.0000000000000000e+00  0.0000000000000000e+00  0.0000000000000000e+00  0.0000000000000000e+00  0.0000000000000000e+00  0.0000000000000000e+00  0.0000000000000000e+00  0.0000000000000000e+00  0.0000000000000000e+00  0.0000000000000000e+00  0.0000000000000000e+00  0.0000000000000000e+00  0.0000000000000000e+00  0.0000000000000000e+00  0.0000000000000000e+00  0.0000000000000000e+00  0.0000000000000000e+00  0.0000000000000000e+00  0.0000000000000000e+00  0.0000000000000000e+00  0.0000000000000000e+00  0.0000000000000000e+00  0.0000000000000000e+00  0.0000000000000000e+00  0.0000000000000000e+00  0.0000000000000000e+00  0.0000000000000000e+00  0.0000000000000000e+00  0.0000000000000000e+00  0.0000000000000000e+00  0.0000000000000000e+00  0.0000000000000000e+00  0.0000000000000000e+00  0.0000000000000000e+00  0.0000000000000000e+00  0.0000000000000000e+00  0.0000000000000000e+00  0.0000000000000000e+00  0.0000000000000000e+00  1.5959360467108209e-02  1.0129173261190817e-02  5.6584742047146516e-03  4.4443663890449632e-02  5.4266559043733772e-03  1.6995126852046075e-02  6.8032589629502330e-03  1.4187131557493944e-02  3.5283471332906845e-02  4.4886892759738442e-03  3.1635958108429925e-03  6.5465957063117960e-03  3.3982781778904353e-03  2.0816615534779721e-02  1.0117179254816932e-02  2.8642777520940139e-02  6.3786161942112297e-03  2.0342447313529903e-02  1.3250630305250229e-02  8.9556706774928281e-03  4.1189838460164448e-02  2.4543007157498287e-03  4.2084998153312705e-03  2.7469380336265594e-03  2.3685287623525252e-03  8.6901953243124046e-03  1.5989788831683574e-02  2.9190030364639021e-03  7.3214563856777758e-03  4.0258260837117222e-03  3.0266352540013744e-03  1.0613621701701253e-02  1.3964649775913099e-02  6.2686973768104667e-03  1.1584551739727731e-02  6.1070211928164345e-03  9.4390697193617017e-03  5.5162969996101919e-03  2.3863527127374187e-02  1.4540673291921543e-02  2.4528589978355091e-02  3.0313484953202546e-02  2.0785784435458201e-03  2.3255566880797554e-03  1.2012706989839927e-02  2.5199741051329199e-02  1.5491890911613587e-03  1.5647675083544526e-03  1.9291488180545338e-02  4.7800371186910572e-02  5.7678250281639780e-03  7.2792687039870147e-03  4.2373828489249785e-03  3.8691118652198785e-03  1.6827711153902906e-03  1.8742108605059619e-03  1.0259725260324426e-02  2.9689252578058733e-03  1.4642092832616938e-03  2.0099762449140406e-02  3.9833507525156422e-02  5.0762412837455379e-03  3.3264264516111009e-03  1.0488321332458500e-02  6.4532351863130317e-03  8.2949966564600137e-03  1.5742856089219883e-03  2.1526189751379030e-02  1.9976219669724838e-02  1.4199628096354505e-02  1.1061496992357473e-02  8.0003030385053520e-03  4.0207027314075189e-03  6.7165514117072190e-03  6.9515594029550352e-03  6.0246925166223316e-03  1.4640647237074471e-02  2.9904185891749539e-02  5.9837102935461232e-02  1.9328638804544701e-03  8.0561012144030435e-03  3.3809811843135370e-03  9.0051795648703886e-03  1.1887212984636024e-03  1.7619887459201081e-02  1.9837082093712263e-03  1.3783635953812966e-03  1.1538350631895579e-03  1.9039686451363443e-02  2.1420872936619217e-02  1.7418686121961204e-02  1.5954368789330400e-02  4.6633380145074928e-03  4.7374472678986763e-02  2.3700658007619120e-02  3.6032766069371679e-03  3.8638169576092848e-03  4.8623351337858129e-03  1.0259317208389664e-02  9.3308372247525011e-03  8.2033691805548422e-03  3.2221584483188674e-02  2.7639914281298848e-03  1.5010048364487556e-02  1.1222700901791284e-02  2.8029335284306288e-03  3.3724413494218334e-03  2.0606608118663352e-03  1.5082445381927490e-02  2.1002783851373540e-03  1.3868225215934982e-03  1.1248594604087496e-02  6.5987135756479867e-03  3.6873172463775958e-02  3.4255779166214918e-03  4.9697680485539233e-03  3.7749576555987686e-02  1.9684139969478134e-03  2.8011637450536260e-02  4.7175203679965276e-03  3.3481589678272493e-03  6.5477932339638618e-03  1.5852514760337319e-02  6.9685109626253577e-03  6.3490328328578843e-03  9.7295304069818216e-03  1.0585573415526399e-02  1.2354680119811327e-02  3.5667060477094846e-03  4.2910466586267041e-03  2.4174377495236918e-02  1.2842670872329518e-02  1.3902866362279591e-03  4.9545801719726333e-03  3.7532091517402436e-03  1.0053277730233106e-03  1.0345914777291575e-03  8.3101645129499292e-03  1.0969927153547017e-03  1.6932759524198389e-03  1.1342294126988497e-02  1.1650178778283919e-02  5.0797929053693069e-03  2.0185485696712930e-03  1.5972003321057917e-03  8.6169206913170558e-03  8.4788525088665880e-03  1.2647490953989036e-02  1.3896488797631547e-03  8.6741840995601706e-03  2.1896782551839803e-03  1.1272242349344800e-02  5.0511349607543568e-03  2.8919256320152800e-03  2.2733530257615459e-02  1.6818881266760451e-02  3.4004730521409753e-03  4.6930612267154321e-03  7.9080112124129878e-03  6.1279882309432324e-03  5.2274129998685619e-03  2.9014714677053259e-03  2.8715499871412062e-03  1.2457613936376889e-02  4.2704994841110001e-03  5.0266037737462264e-02  3.8455118779175735e-03  3.2908383689763121e-03  1.2299068955250321e-02  7.4149921722559582e-03  1.0232062018418089e-03  9.7213459209932838e-04  5.5250439369959681e-03  7.0425190033942039e-03  2.5273269663201949e-02  6.0979195517726070e-03  4.8698779609677355e-02  1.3983641377503868e-02  2.3972941325053423e-02  1.0179939143720096e-03  8.2944789875986115e-03  4.3865021457154636e-03  6.7383766061545770e-03  1.9989366192847323e-02  6.9329623182282319e-03  2.4406048164147417e-03  3.4645437332098329e-02  3.6357531920761209e-02  1.3604711542150051e-02  2.4058427745282090e-03  2.9482039158468323e-02  1.7401854373004760e-03  3.6093835846640700e-02  1.2508983169990198e-03  7.9103331105683265e-04  8.0515446894618146e-04  2.0574239171877815e-03  1.9164157793365885e-02  2.2446269359668980e-02  1.9472409200003267e-02  3.3223133881948870e-02  1.4114810325931763e-02  6.4667805798101366e-03  1.8609653194387493e-02  5.3687359901639711e-03  1.0240261696157387e-02  1.9499472978462135e-03  1.2833950253648042e-02  1.1761023202716525e-02  1.0058097514047489e-02  8.2469894149676251e-04  2.5688516638840198e-03  3.6321908982105463e-03  5.2000736039250562e-03  3.0145623190860039e-03  2.9072660653781571e-02  5.3346807097139027e-03  3.6602343181528925e-03  1.9663002949222752e-03  7.6069749309877271e-04  2.8616592753366147e-02  1.3581737727631712e-02  1.5882822409415343e-02  2.0769465318127643e-02  1.4655822133092756e-03  8.1662881599954399e-04  1.8293976350552310e-03  8.1636494647767434e-03  9.0256525906882263e-04  4.0042345953358489e-03  5.0317397251792790e-03  5.5211205480735865e-03  8.4510933048346538e-03  8.3729100876825703e-03  5.6959361168587973e-03  3.4261357332042376e-03  3.6763285952468258e-03  1.8319844282300342e-03  2.3485357045292424e-03  2.7529442599924141e-03  8.6016899266394449e-03  1.4113443575747647e-02  7.4927507329951857e-04  1.7816560842737496e-03  2.9779881425997135e-02  5.1892862154432748e-03  1.8658841362044498e-03  2.3859921429968428e-02  7.7460444759477366e-04  1.0663248558399343e-02  9.2620771124614122e-03  1.0341994070578087e-03  5.1786431667571291e-03  3.1358200747711442e-03  1.0823538340638423e-02  3.1719999273107382e-03  8.8196817345934098e-03  3.4142466511216381e-03  6.7064998703330074e-04  1.0071438225677345e-02  8.5994452874312238e-04  2.7108886281985755e-03  8.1282414562497526e-04  9.2457638825842077e-03  6.9426529236790550e-04  9.3900418177628626e-03  1.3419397559392086e-02  9.3100711725903011e-03  3.5528615150940870e-02  5.0554876632996147e-02  5.1191993203686205e-02  6.8227432108590525e-03  6.2648302174575067e-03  1.6744890400975657e-02  2.3441567737929315e-02  1.6709449205179552e-02  2.5958399679765185e-02  1.1804490992524533e-03  5.5730719016117624e-03  4.3494325842336279e-03  6.2660397306134475e-03  1.0048742809508149e-02  1.1776712206850552e-02  9.7417052613792635e-03  1.9485109200528200e-03  6.1531459488401155e-03  1.3122579038456999e-02  2.5162771730286890e-02  6.6371767391026921e-03  9.4094026778592955e-03  1.9966645365492103e-02  2.6525450419813922e-02  1.7662245088247003e-02  7.4008324696379869e-03  2.2949214323928616e-03  1.7706331675231054e-02  1.2235238249182748e-03  1.6751643124388301e-03  9.9625203154834661e-04  4.1852753608675472e-03  1.4559483069277590e-02  8.9330957653263674e-04  5.8749033653176424e-03  9.0456199508675717e-03  2.5515975760382711e-02  1.0456852340356324e-02  1.3611338602731610e-02  4.6450884710136659e-03  8.1043783583609422e-03  6.9328433741163032e-03  1.0582510368564174e-02  5.3815737957169677e-03  3.3782033010917585e-03  3.2240284035039181e-02  4.3796163668488536e-03  1.0544134014069190e-02  6.6133380865144630e-03  9.6117278773873195e-03  4.6729099209965441e-03  3.0794447195951861e-03  1.8825110394425484e-02  2.0607564187848336e-02  1.7425586272927385e-02  3.8809363035051904e-03  8.6702064696145241e-03  5.4080913666206855e-03  6.9828598005532002e-03  3.9188001109598143e-03  1.2401156051583947e-02  2.5803831766240608e-03  3.0859524462188092e-03  1.6769385875390558e-03  5.6926820220014128e-02  5.3951075711994978e-02  2.5771082879840843e-03  4.9931906732393746e-03  1.8252407321719469e-03  5.9378194940610488e-04  2.5960145962199408e-03  1.2213828732141368e-02  4.3013483868556369e-03  8.2367025491193887e-04  1.1383956277551155e-02  6.9803696635290457e-04  9.6409852222900324e-04  5.4039060547941484e-03  2.7333481006245462e-02  2.3702686467440944e-02  2.4292969799549150e-02  2.8094403937218696e-03  1.3566167322357797e-02  1.4259628834304197e-02  9.3416424981047404e-03  2.2220380836060244e-03  1.0165203986783325e-03  9.2607007080325564e-03  3.9434334786523986e-02  2.0088877580862197e-03  4.4066042897699153e-03  8.8023490116726048e-03  4.1354774688071340e-02  1.2496834206729163e-02  1.4878185894875561e-02  4.9182158531048195e-03  5.6914929284932858e-02  1.6941503815417975e-03  2.2772283796311420e-02  5.3654614307664869e-02  2.7488154868941074e-03  2.4402258664523550e-02  2.1521031487798759e-02  5.6810023917715192e-04  2.0359078369565293e-03  2.0305327950236483e-03  1.3759607654841974e-03  1.2082176335610288e-02  1.7076326315607175e-02  2.0940219222128405e-02  3.7453158785409591e-03  1.9813964850837543e-03  9.5173388487186580e-03  1.7453557412118292e-02  5.9769126670088570e-03  9.5518787456098271e-03  2.7587214005808987e-03  3.9949052488857544e-02  1.6974275505389951e-03  1.7677910496359826e-02  4.9203167461272408e-03  5.5242328676959182e-03  1.7577134428011430e-02  1.3185629508183869e-02  2.3084224891770776e-02  1.7011609110652543e-02  1.3801343995261825e-02  4.6571034583293806e-03  5.4004764799422973e-03  2.6965903920115879e-02  4.7459665167488624e-03  3.1702852331862777e-03  4.3434482733322949e-03  6.0853261997481020e-03  9.9846314981340036e-03  8.7406041729517180e-03  2.4123204066228581e-03  3.3839223509480520e-03  3.0982407157946206e-03  9.0808331455642689e-03  2.3130469032951961e-02  3.5689312860377166e-02  3.7599942717287333e-03  7.4904330649136954e-03  1.5021949844252829e-03  9.4398009706575716e-03  1.5348683766347272e-02  1.0607915320948980e-03  1.6784340528572559e-02  4.7480370228342719e-03  7.3016243638945877e-03  3.9733196721179150e-02  1.4310290755229117e-02  6.8627698507111646e-04  1.9746952024607117e-02  7.5985566564242381e-03  1.7442650973985913e-02  4.0911440908227318e-03  1.2015806637493536e-02  4.4787532947811640e-02  9.1707143508888821e-03  7.1634482861189343e-03  8.7805626828810820e-03  2.9461436621440188e-02  5.0727159197617739e-04  1.4860233095890048e-02  1.0849314255948711e-02  5.4826535221397493e-04  5.9350178811073137e-03  1.8725217522105188e-02  7.6185917712918091e-03  1.4427964461431844e-02  5.5361492299562127e-03  6.9404061154737778e-03  1.3732438642846828e-03  4.5233671768043729e-02  2.7208362765111351e-03  4.6326448507770374e-03  2.5639470379820082e-03  7.3990413098824421e-03  2.0036009902676424e-02  1.4385963286399123e-02  1.0074838225923990e-02  2.9057456272967414e-03  5.0980290654345168e-03  2.1796693066150259e-03  3.4823583639269945e-03  3.4418875149178699e-03  1.8119779820056379e-02  1.5436181004403710e-02  1.3222977344979295e-02  2.7687754043318018e-03  3.0015056389774492e-02  1.3856141390517520e-02  7.7095113530129536e-03  7.2237702450614278e-03  1.5763312506581690e-03  1.1120620699498011e-02  5.2837002186928753e-04  2.0587012298344570e-03  1.9318321957208388e-02  2.1236781752039563e-03  5.5788538022201505e-04  5.3311572667050200e-04  1.3519390087162056e-03  1.2930729071483310e-03  1.0739716596606548e-03  1.1524593281590958e-03  1.4299336646955312e-03  2.1432103620837297e-03  6.8029851136413384e-04  3.5073687368650098e-03  1.2061913137520527e-02  1.0356961213954800e-02  9.8703943640221625e-03  1.7891532467458816e-02  1.2107669067145386e-03  1.3399323719841720e-03  6.1680529156628316e-04  4.2129712492624774e-02  3.2488206835463704e-02  3.3411970127308774e-02  2.9336329320529108e-03  5.0200820250034806e-03  2.1368869356178100e-03  8.5966571255221731e-03  3.5834557142719776e-03  4.2399619268765464e-03  7.4860081448544901e-03  5.8317523516643896e-04  3.2913544574043898e-03  3.8733286089081150e-03  2.4162242467336134e-03  1.1493156646933079e-02  2.6322232192350671e-02  2.4246951778607993e-02  3.0165292664073726e-02  3.2812559152007377e-02  3.6101517601457793e-02  1.2205166769277971e-02  4.5537128226253373e-03  6.4467510890304815e-03  2.5955342755689076e-03  2.4492712233474350e-03  2.1334458919594918e-03  2.6745568949989923e-03  1.8814799009929571e-02  1.7663110636110778e-03  1.9201795644867598e-03  1.7074118491303353e-03  5.2285547614885483e-03  5.6194431869683054e-03  4.6899470585817296e-03  3.7940065101664394e-03  7.0672710172414305e-03  1.1100825568683313e-03  1.3146391538655902e-03  1.2393996401063314e-02  4.9324744932452130e-03  7.7166681304136897e-03  4.0011756956086029e-03  5.0728395447305948e-03  5.7787664562702710e-03  7.4988414723542269e-03  5.8867613531816349e-03  4.2500585592502825e-03  3.0789083454046864e-02  7.9614479242715898e-04  1.3775752062546737e-02  1.1904562699462898e-02  1.2705503344567961e-02  5.4346148194568556e-03  7.0706867723769910e-03  5.9567166974329785e-03  3.0338743244408125e-03  2.9082269374957294e-03  1.2184936688820940e-02  5.6014716357072041e-03  8.9162814357649015e-03  8.6355977858625609e-03  7.1995412046870228e-03  2.7057698795559695e-03  3.7314481407912624e-02  5.6228044818505598e-04  1.1459661045106220e-02  1.0532276322724356e-02  4.3968101079987958e-03  7.9752857532427897e-03  1.2277904018085657e-03  4.5055107162662769e-04  4.9832293111557715e-04  9.5139897269122965e-04  2.8744403018528722e-02  1.0689604500395680e-03  5.4014818979937918e-04  4.2703400433399416e-02  1.7878372971510935e-03  6.5491223301582125e-03  6.6308179805277499e-03  6.8315422387991024e-03  7.4111171624514048e-03  1.9217402485367785e-03  5.0042374575042870e-03  3.1464260691811390e-03  3.9880544534839392e-03  4.0047652118375410e-03  2.0127670789917944e-02  2.9953471375585294e-02  3.9216179566982793e-03  4.4316974459433179e-03  4.5364264779136132e-02  2.0195824073018080e-03  4.5763250047888606e-04  7.3891052620643233e-03  8.4411549252428695e-03  1.6217101493989423e-02  2.7662237450669615e-02  5.2872875989937364e-03  2.8459747414682859e-03  3.1526457610116078e-03  1.5727626064194877e-02  2.6149782092981400e-03  3.6107279920764381e-03  7.9927979799385394e-03  6.8089342200245142e-03  4.8678701969804932e-04  1.5312630334288787e-03  2.5339111523116197e-03  2.2060989113024412e-02  8.8374424398035198e-04  1.6185371370933360e-03  4.3413619721072638e-03  1.0957425098619401e-02  4.5186534606377615e-03  1.1209216358885794e-03  1.8153909918358932e-03  2.3059368660043700e-03  1.5600667889869057e-03  5.1033294732800195e-03  5.6968647320485028e-03  3.2145949861345888e-03  3.9209531208872495e-03  2.2371377843291773e-03  2.6953538745861190e-03  1.3976175392901333e-03  2.2099188299807499e-03  6.1205301170812300e-03  1.3573463255842093e-03  2.3892920401397517e-03  7.9452541656750766e-03  5.9891809544339548e-03  2.2045996247230964e-03  4.0062804955917171e-03  2.5629842099588597e-03  1.9406475487088017e-03  1.4977321650786143e-03  1.8746867560425130e-02  7.8871390233153787e-03  4.3220231964068625e-03  2.9262193794364733e-02  7.0897266875567817e