<?xml version="1.0"?>
<VTKFile type="UnstructuredGrid"  version="0.1"  >
<UnstructuredGrid>
<Piece  NumberOfPoints="8272" NumberOfCells="16140">
<Points>
<DataArray  type="Float64"  NumberOfComponents="3"  format="ascii">-0.999877856940653 0.01562917783400803 0  -0.999877856940653 -0.01562917783400779 0  -0.9989008914857115 -0.04687226246994006 0  -0.9969479151539236 -0.07806954893071458 0  -0.994020836168776 -0.1091905548219597 0  -0.9901225145346509 -0.140204872281886 0  -0.985256759242359 -0.1710821976923499 0  -0.979428324547432 -0.2017923612880579 0  -0.9726429053248131 -0.2323053566349829 0  -0.9649071315044797 -0.2625913699491981 0  -0.9562285615934407 -0.2926208092274699 0  -0.9466156752904342 -0.3223643331611536 0  -0.9360778652005416 -0.3517928798051443 0  -0.9246254276578175 -0.3808776949738565 0  -0.912269552664897 -0.4095903603365061 0  -0.8990223129594145 -0.4379028211842264 0  -0.8848966522179168 -0.4657874138418977 0  -0.8699063724087903 -0.4932168926979072 0  -0.8540661203065708 -0.520164456825418 0  -0.8373913731808008 -0.5466037761691488 0  -0.8198984236734248 -0.5725090172720717 0  -0.8016043638794972 -0.5978548685168891 0  -0.7825270686467568 -0.6226165648576288 0  -0.7626851781103819 -0.6467699120171987 0  -0.7420980794800013 -0.6702913101272414 0  -0.7207858880967426 -0.6931577767872117 0  -0.6987694277788415 -0.7153469695201276 0  -0.6760702104750047 -0.7368372076030654 0  -0.6527104152454097 -0.7576074932510666 0  -0.6287128665908849 -0.777637532133752 0  -0.6041010121514363 -0.7969077532046042 0  -0.5788988997959114 -0.8153993278235416 0  -0.5531311541251993 -0.8330941881540916 0  -0.5268229524119011 -0.8499750448172039 0  -0.5000000000000004 -0.8660254037844384 0  -0.4726885051885656 -0.8812295824940283 0  -0.4449151536240167 -0.895572725174074 0  -0.4167070822259868 -0.9090408173578921 0  -0.3880918526722498 -0.9216206995773374 0  -0.3590974244686246 -0.933300080220719 0  -0.3297521276301665 -0.9440675475427478 0  -0.3000846350003414 -0.9539125808147788 0  -0.2701239342352219 -0.9628255606044562 0  -0.2398992994800976 -0.9707977781747126 0  -0.2094402627661449 -0.977821443992945 0  -0.1787765851551298 -0.9838896953420493 0  -0.1479382276603303 -0.9889966030258751 0  -0.1169553219720827 -0.9931371771625541 0  -0.08585814101656615 -0.9963073720600383 0  -0.05467706937658603 -0.9985040901690829 0  -0.02344257360326047 -0.9997251851098159 0  0.007814827552383885 -0.9999694637689326 0  0.03906459295881858 -0.9992366874654682 0  0.07027618894529319 -0.9975275721840101 0  0.101419119135812 -0.9948437878751196 0  0.1324629542466875 -0.991187956823649 0  0.1633773618185298 -0.9865636510865465 0  0.1941321358536273 -0.9809753890026542 0  0.2246972263297716 -0.9744286307779074 0  0.2550427685616763 -0.9669297731502506 0  0.2851391123813071 -0.9584861431394824 0  0.3149568511086103 -0.9491059908881351 0  0.3444668502843322 -0.9387984816003867 0  0.3736402761368591 -0.927573686586878 0  0.4024486237552531 -0.9154425734241896 0  0.4308637449409699 -0.9024169952385886 0  0.4588578757110361 -0.8885096791245188 0  0.4864036634258114 -0.8737342137091519 0  0.5134741935148417 -0.8581050358751444 0  0.5400430157746755 -0.841637416654579 0  0.566084170212953 -0.8243474463078735 0  0.5915722124135223 -0.8062520186022299 0  0.6164822383977913 -0.7873688143049919 0  0.6407899089580255 -0.7677162839080369 0  0.6644714734388212 -0.7473136296000775 0  0.6875037929435054 -0.7261807865044996 0  0.7098643629428029 -0.7043384032010527 0  0.7315313352636693 -0.6818078215504374 0  0.7524835394368069 -0.6586110558415 0  0.7727005033820112 -0.6347707712814024 0  0.7921624734111292 -0.6103102618497922 0  0.8108504335290849 -0.5852534275386133 0  0.8287461240141216 -0.5596247509997839 0  0.8458320592590973 -0.5334492736235703 0  0.8620915448564062 -0.5067525710710259 0  0.8775086939098309 -0.4795607282843985 0  0.8920684425573863 -0.4519003139999344 0  0.9057565646899908 -0.423798354787966 0  0.91855968585158 -0.3952823086456649 0  0.9304652963070865 -0.3663800381682464 0  0.9414617632655112 -0.3371197833248509 0  0.9515383422461453 -0.3075301338657036 0  0.9606851875768402 -0.2776400013875007 0  0.9688933620140637 -0.2474785910843287 0  0.9761548454753451 -0.2170753732117144 0  0.982462542875576 -0.1864600542916819 0  0.9878102910595093 -0.1556625480869676 0  0.9921928648236853 -0.1247129463727333 0  0.9956059820218981 -0.09364148953435038 0  0.998046307749216 -0.06247853701998218 0  0.9995114576004659 -0.03125453767682462 0  1 0 0  0.9995114576004659 0.03125453767682429 0  0.998046307749216 0.06247853701998265 0  0.9956059820218981 0.09364148953435077 0  0.9921928648236853 0.1247129463727328 0  0.9878102910595095 0.155662548086967 0  0.9824625428755761 0.1864600542916812 0  0.9761548454753453 0.2170753732117136 0  0.9688933620140637 0.2474785910843287 0  0.9606851875768402 0.2776400013875006 0  0.9515383422461454 0.3075301338657034 0  0.9414617632655113 0.3371197833248507 0  0.9304652963070866 0.3663800381682462 0  0.9185596858515798 0.3952823086456654 0  0.9057565646899906 0.4237983547879663 0  0.8920684425573865 0.4519003139999338 0  0.8775086939098312 0.4795607282843979 0  0.8620915448564065 0.5067525710710252 0  0.8458320592590973 0.5334492736235703 0  0.8287461240141216 0.5596247509997838 0  0.810850433529085 0.5852534275386132 0  0.7921624734111294 0.6103102618497921 0  0.7727005033820115 0.6347707712814021 0  0.7524835394368066 0.6586110558415004 0  0.731531335263669 0.6818078215504377 0  0.7098643629428032 0.7043384032010522 0  0.6875037929435059 0.7261807865044991 0  0.6644714734388218 0.7473136296000771 0  0.6407899089580261 0.7677162839080363 0  0.6164822383977913 0.7873688143049919 0  0.5915722124135225 0.8062520186022297 0  0.5660841702129533 0.8243474463078734 0  0.5400430157746758 0.8416374166545789 0  0.5134741935148419 0.8581050358751443 0  0.4864036634258112 0.8737342137091521 0  0.4588578757110356 0.8885096791245191 0  0.4308637449409705 0.9024169952385883 0  0.4024486237552537 0.9154425734241893 0  0.3736402761368599 0.9275736865868777 0  0.344466850284333 0.9387984816003864 0  0.3149568511086103 0.9491059908881351 0  0.2851391123813073 0.9584861431394823 0  0.2550427685616765 0.9669297731502506 0  0.2246972263297718 0.9744286307779073 0  0.1941321358536277 0.9809753890026541 0  0.1633773618185302 0.9865636510865465 0  0.1324629542466882 0.9911879568236489 0  0.1014191191358116 0.9948437878751196 0  0.07027618894529299 0.9975275721840101 0  0.03906459295881949 0.9992366874654682 0  0.007814827552383908 0.9999694637689326 0  -0.02344257360326044 0.9997251851098159 0  -0.05467706937658601 0.9985040901690829 0  -0.08585814101656591 0.9963073720600383 0  -0.1169553219720823 0.9931371771625542 0  -0.14793822766033 0.9889966030258751 0  -0.1787765851551293 0.9838896953420494 0  -0.2094402627661442 0.9778214439929452 0  -0.2398992994800977 0.9707977781747126 0  -0.2701239342352221 0.9628255606044562 0  -0.3000846350003405 0.953912580814779 0  -0.3297521276301665 0.9440675475427478 0  -0.3590974244686244 0.9333000802207191 0  -0.3880918526722498 0.9216206995773374 0  -0.4167070822259866 0.9090408173578922 0  -0.4449151536240161 0.8955727251740744 0  -0.4726885051885654 0.8812295824940284 0  -0.4999999999999998 0.8660254037844388 0  -0.5268229524119005 0.8499750448172043 0  -0.5531311541251993 0.8330941881540916 0  -0.5788988997959115 0.8153993278235415 0  -0.6041010121514356 0.7969077532046046 0  -0.6287128665908847 0.7776375321337522 0  -0.6527104152454094 0.7576074932510668 0  -0.6760702104750045 0.7368372076030656 0  -0.6987694277788417 0.7153469695201276 0  -0.7207858880967422 0.6931577767872122 0  -0.7420980794800012 0.6702913101272416 0  -0.7626851781103818 0.6467699120171988 0  -0.7825270686467567 0.6226165648576291 0  -0.8016043638794973 0.5978548685168888 0  -0.8198984236734244 0.5725090172720723 0  -0.8373913731808004 0.5466037761691493 0  -0.8540661203065709 0.5201644568254178 0  -0.8699063724087902 0.4932168926979075 0  -0.8848966522179167 0.4657874138418979 0  -0.8990223129594146 0.4379028211842262 0  -0.9122695526648966 0.4095903603365067 0  -0.9246254276578172 0.3808776949738572 0  -0.9360778652005417 0.3517928798051441 0  -0.9466156752904341 0.3223643331611538 0  -0.9562285615934408 0.2926208092274696 0  -0.9649071315044796 0.2625913699491987 0  -0.972642905324813 0.2323053566349835 0  -0.9794283245474321 0.2017923612880577 0  -0.9852567592423589 0.1710821976923501 0  -0.9901225145346509 0.1402048722818858 0  -0.994020836168776 0.1091905548219599 0  -0.9969479151539234 0.07806954893071527 0  -0.9989008914857115 0.04687226246993987 0  -2.220446049250313e-16 -2.775557561562891e-17 0  0.495121732950537 0.0701109997129428 0  0.2894848084580966 -0.4077494676791992 0  0.1199643025469755 0.4854581844351878 0  -0.208321484723656 -0.4545351034255543 0  -0.3961296211893942 0.3051924080593067 0  -0.5299914253366359 -0.1353725150479268 0  0.4752961487807781 0.4293056229008687 0  -0.2047098615563837 0.6168824564798706 0  0.6011920857205356 -0.258710020963746 0  0.0569948451446296 -0.6613744918616201 0  -0.6692240620231462 0.1488207159953114 0  -0.5189469831006014 -0.4542082352013384 0  0.2628725907322074 0.2374365573913091 0  -0.2401550419600574 -0.1649389566433385 0  -0.09845826576625226 0.2818821948633727 0  0.6858952859875964 0.2577703061600073 0  0.3286942078074945 0.6539539179245708 0  -0.4695280106517326 0.5625311736173001 0  0.3601016434076746 -0.1549619596263037 0  0.03198396054351801 0.734863271881292 0  0.3178984447333445 -0.6671659169583799 0  0.7366827444127025 -0.0334852664759817 0  0.5307885381256084 -0.5119436070319449 0  -0.1971557805221339 -0.7137952013112341 0  0.02707361228503496 -0.2874145797437222 0  -0.2633657927342306 0.08829983271327729 0  -0.7131869357612641 -0.2808245055268228 0  -0.645382683008709 0.3923639881917191 0  -0.7382302095042413 -0.06119015402793401 0  -0.3637781125902604 -0.5911007325550353 0  -0.4737791630419315 0.06837034373019976 0  0.2949710730050231 0.0371449
[...]
<PointData  Scalars="f_31"> 
<DataArray  type="Float64"  Name="f_31"  format="ascii">2.1006853729438251e-37  1.9044762516145299e-38  1.7286197024528508e-39  1.5745298550764660e-40  1.4426021963050998e-41  1.3326028710560367e-42  1.2440106770171597e-43  1.1763131592838373e-44  1.1292708469748161e-45  1.1031739418970524e-46  1.0991262908717682e-47  1.1194058327410998e-48  1.1679741458901859e-49  1.2512487302105157e-50  1.3793252495219893e-51  1.5679711615049079e-52  1.8419612611459310e-53  2.2407979354070174e-54  2.8287762329158213e-55  3.7131833665802927e-56  5.0781759659196255e-57  7.2498142850075963e-58  1.0825047552317661e-58  1.6936493928862380e-59  2.7816028407909630e-60  4.8040906632938404e-61  8.7401108058758155e-62  1.6777818318820638e-62  3.4038247916146062e-63  7.3095217304240293e-64  1.6640008723126210e-64  4.0215082904228244e-65  1.0332320020669081e-65  2.8259004488477831e-66  8.2378927836399054e-67  2.5627058070340265e-67  8.5172659490712260e-68  3.0275263853338219e-68  1.1521283340745986e-68  4.6983886840657688e-69  2.0550046822772700e-69  9.6481353058825054e-70  4.8658811344122258e-70  2.6378956759955512e-70  1.5381247383368454e-70  9.6514422624091022e-71  6.5201465410680297e-71  4.7440953359909753e-71  3.7189069314908488e-71  3.1415673728623262e-71  2.8603435707891115e-71  2.8071820366618384e-71  2.9696923641314068e-71  3.3862341034492293e-71  4.1613230096920559e-71  5.5101997768049682e-71  7.8596931029326182e-71  1.2072451100772838e-70  1.9959737509173241e-70  3.5503432635263608e-70  6.7904354975428612e-70  1.3956017405512234e-69  3.0800394051988220e-69  7.2936685349863352e-69  1.8516757608049739e-68  5.0352110928769077e-68  1.4651421008873854e-67  4.5571980814932050e-67  1.5135285963939562e-66  5.3610341754647163e-66  2.0227167413731931e-65  8.1187027136543990e-65  3.4618923935776605e-64  1.5660313485627399e-63  7.5042420435841019e-63  3.8033631820076255e-62  2.0356102842503376e-61  1.1486177302032329e-60  6.8214417658851397e-60  4.2563824669515564e-59  2.7854282860857280e-58  1.9082401441404231e-57  1.3659889775916574e-56  1.0197630144249126e-55  7.9238485635163913e-55  6.3956971922889861e-54  5.3514105192106180e-53  4.6320778591261278e-52  4.1389941518560446e-51  3.8097443208595401e-50  3.6044332943599996e-49  3.4975563675301774e-48  3.4730793642289769e-47  3.5213795962200694e-46  3.6372753938365977e-45  3.8186856138170773e-44  4.0656338796030470e-43  4.3794098831799772e-42  4.7617572850122998e-41  5.2139954233393581e-40  5.7360137148510263e-39  6.3251129672801308e-38  6.9747138060831162e-37  7.6730128817859404e-36  8.4017415534343123e-35  9.1352613973193725e-34  9.8402992580233410e-33  1.0476655607389008e-31  1.0999182002178005e-30  1.1361187556093005e-29  1.1519187975059615e-28  1.1438573062113469e-27  1.1099401981291892e-26  1.0501243831456953e-25  9.6658880348781817e-25  8.6369563002991984e-24  7.4759829964893805e-23  6.2553077242444502e-22  5.0489422820442215e-21  3.9231717058710725e-20  2.9287977212957063e-19  2.0965418934143533e-18  1.4362981179125661e-17  9.3993090046500637e-17  5.8648971026823898e-16  3.4830608127367858e-15  1.9653592025149337e-14  1.0518862421057054e-13  5.3312584824015759e-13  2.5546777263156724e-12  1.1556411783068343e-11  4.9277643805788649e-11  1.9778871272748987e-10  7.4625627704356130e-10  2.6432968722344585e-09  8.7788709934121655e-09  2.7305920718968174e-08  7.9454571637422215e-08  2.1605863669923337e-07  5.4851757873211646e-07  1.2989137080949650e-06  2.8666526335122119e-06  5.8916772073501768e-06  1.1268503093731330e-05  2.0043877846823801e-05  3.3139131163094311e-05  5.0901547331318275e-05  7.2605451107716584e-05  9.6140227412472572e-05  1.1814615536505167e-04  1.3471783990849859e-04  1.4251677848590375e-04  1.3986800207297913e-04  1.2734743298661888e-04  1.0757745430541149e-04  8.4330206742144374e-05  6.1359133260064516e-05  4.1451891811730570e-05  2.6010279304209020e-05  1.5166276063498128e-05  8.2219546560475542e-06  4.1466099697484208e-06  1.9468108464123292e-06  8.5150584038596436e-07  3.4724477183341163e-07  1.3214436129329861e-07  4.6971709334986961e-08  1.5611255080097092e-08  4.8564669509060909e-09  1.4157276511692842e-09  3.8720300928372702e-10  9.9482709370836683e-11  2.4042688146704126e-11  5.4732793094159507e-12  1.1753558569587463e-12  2.3845206384179574e-13  4.5774081058511922e-14  8.3277058766884256e-15  1.4382734106454012e-15  2.3621804026792766e-16  3.6957855247749235e-17  5.5183557089990325e-18  7.8782331131001347e-19  1.0774327604968631e-19  1.4142883973405196e-20  1.7853932037646785e-21  2.1719812947621694e-22  2.5515172109707038e-23  2.9004800762343874e-24  3.1973702016965317e-25  3.4253372978870394e-26  3.5739544031935126e-27  3.6398960138714059e-28  3.6265408862050882e-29  3.5427332739555941e-30  3.4010547049572422e-31  3.2159735272355236e-32  3.0021737846887625e-33  2.7732561444398400e-34  2.5408888831081615e-35  2.3143930381034618e-36  3.9438022303966064e-10  9.6377361309998285e-15  1.1104648806621164e-30  6.8768364275106153e-01  3.0670657238385496e-32  6.6809330564840962e-07  5.8082429310170697e-23  3.2597093965929235e-07  2.6875935167518744e-01  1.1499269430805238e-30  1.9424325958291806e-44  3.1321390655052218e-18  1.6857752230321647e-38  1.0658236687389603e-05  5.4370614189009748e-18  3.3098394556002556e-03  1.8644226257789766e-16  3.2975888824540774e-03  2.7257268102552852e-06  1.4310420249369803e-19  1.1697446857709113e+00  1.4543881066177417e-47  2.3098524741273322e-26  2.5419832709488141e-42  3.5168194640331578e-49  4.9330572626382589e-22  2.4914121322354440e-09  7.9419843071096526e-36  6.7092235618476863e-13  2.0099123284576319e-27  3.0953570442665097e-43  3.2164919543825268e-14  2.3884617388858700e-11  1.3970776685747438e-27  1.2454832407119052e-15  3.7937571602026904e-13  1.3063631148798229e-07  1.7536440976317048e-32  8.3497227832222645e-02  4.8727906727194129e-04  2.5744789235544016e-03  8.1873404968040506e-03  1.5408094941322946e-42  9.9814176509346180e-37  1.3263847501521805e-10  2.1373585440648151e-03  4.0820415344238956e-56  1.5713903985229557e-55  3.4292252094350146e-07  1.0263756331945346e+00  1.6063909955404561e-28  1.7221952691872526e-21  7.0108841411723876e-38  6.5426605484982398e-20  5.1347134600341561e-50  3.1174731725512703e-44  1.7936350591502055e-16  1.7083862805035344e-26  9.6771278954469045e-55  2.6129958704931525e-02  6.4818430444858632e-01  6.8484884783537193e-30  1.5117113206557972e-24  8.5772515197780638e-12  1.2839607346674167e-28  2.7204691594101822e-22  7.5098847220011154e-52  2.2100496495912707e-05  8.2703567656150249e-07  7.9957685281905446e-12  8.8265052875724237e-17  1.4951795779579745e-23  2.5586992853549546e-39  7.8994786045076317e-19  2.2060118518739713e-20  2.8081098129901185e-11  1.5552982497179344e-09  1.2406104503159196e-02  3.8996828409067135e+00  6.8309495513147867e-36  4.2683018576540444e-07  5.1803323628227951e-19  4.3146724169640779e-06  1.1517905101750583e-57  1.8443762143409977e-06  1.6189099107226211e-34  2.5496803279784311e-49  4.0625123773054200e-59  4.8696236184605356e-02  2.6560008215455711e-03  8.4857786937676905e-05  2.5353241979805161e-06  1.6430829078438280e-34  1.7790621445240860e+00  5.9435314069665128e-05  1.4134558977842574e-39  3.1697110023640351e-35  4.2317141301464842e-27  5.3121131393077691e-16  1.1947377418011192e-11  1.8802229446341357e-21  8.1670597019679297e-02  5.5572403223434219e-47  2.8742178433421338e-09  2.7475606905412410e-04  2.7598830513178564e-46  9.9216845053744516e-18  9.7354420891464461e-31  6.8068211539333597e-11  5.7479746115130079e-32  5.6765577539902433e-44  1.7000199388674900e-16  3.6211432025330487e-21  1.9701557527545854e-01  5.4689073583168482e-42  1.0509908815625006e-11  1.2853941100416891e-01  4.3105258379696051e-46  4.0316097835698958e-03  3.0958183676332960e-29  2.6287702251845150e-36  2.2400492286066255e-28  1.8995605920129919e-02  2.7145640027792624e-15  2.6702192077027415e-25  5.6726205964576350e-09  7.9883972498058609e-09  1.2803302860526584e-03  2.2948438759546703e-21  5.1861630548147239e-35  3.8867730008489546e-02  4.8522729004727755e-13  1.3262581050506393e-43  5.7921959022772458e-23  1.2602597235090447e-30  7.8352644166131430e-61  1.3557239160150503e-57  8.4543223039237355e-23  3.9601021345006763e-56  1.0037942596784025e-39  1.0951657502392454e-09  6.1777445481626428e-15  2.9887006391501567e-34  2.6394627076724685e-52  6.6309697097453672e-50  3.1030304054676455e-18  2.2455615840705761e-16  1.8526456206465243e-12  2.1973607598346040e-56  1.3162554695855574e-14  1.5624640021840444e-25  3.0296496330645242e-12  5.0391096327740664e-10  1.1792431194038735e-42  2.5791829017500918e-04  2.2872123472161811e-08  3.1291112301595746e-15  3.0427935947933120e-33  3.4428915200387668e-23  5.9182297564275783e-29  1.0792075846830141e-08  2.9615874523487829e-17  9.5799019746019670e-37  2.2473998546848842e-12  9.2335259997677365e-22  1.7468973085782133e+00  1.7232204104341348e-40  2.8381263984779571e-31  6.5386825252941299e-03  6.3718050583293321e-24  5.1591767390852122e-51  1.1915738948386073e-53  5.6443837561994339e-25  7.8056667366595915e-27  4.6051694444116734e-02  5.5024880233857077e-15  1.0979275063240994e+00  3.5748144574113739e-05  9.6460641751147742e-05  1.4472437133447031e-49  4.9673684200671973e-23  1.8280875723305666e-36  2.2601493667958471e-06  1.5571119209086507e-06  1.4050025650264247e-26  9.9000008098956811e-48  5.7348917484333450e-01  9.9268141979280258e-02  8.3418540558058478e-13  1.3017147271594522e-42  4.6455786467255395e-03  6.8782776921027718e-27  9.5409507498838780e-02  8.4079369723695761e-40  7.6950714850013764e-63  7.0467487025591879e-62  7.9332459761800243e-49  1.9601066071335416e-07  1.3233562597888193e-04  8.6125822671028298e-05  5.7484171349412291e-02  4.2165167085220470e-05  5.9723063609797855e-26  1.1638633238716658e-04  1.6505518693285281e-32  1.9300622988583757e-03  5.7110455632518329e-52  5.9653703897031811e-09  6.8664211335995853e-12  4.1333416623289035e-18  1.0157269769141568e-56  8.2827368728525141e-45  3.7927168895486037e-32  1.2971883219581891e-33  5.5050048981040588e-15  3.4628052333387685e-02  8.4206362634711016e-20  7.2153448759693295e-26  1.5556581645323034e-52  2.5157225845258666e-61  2.2384531829081364e-01  7.5143395373354100e-13  8.8389098972372478e-10  4.4946153477481520e-06  1.1667778950609870e-31  5.8656628311557723e-57  6.2000891793332273e-24  1.3807415611688091e-20  1.4059995644837358e-49  2.7447331151615414e-38  4.7207458038646209e-30  2.2224648445071103e-30  8.8010901612722304e-20  2.9359715005058302e-18  5.5385003364382114e-26  8.2916039017410197e-42  3.3031321410318127e-41  1.5440757222957162e-23  4.7209966603468388e-40  1.6207792699862841e-40  5.5853581281901508e-05  2.8147186894919049e-09  3.0982447104472644e-60  3.3477470524338600e-29  7.8353657210285532e-02  4.5076522237300999e-10  6.8747926084899612e-51  3.1739828407873873e-03  2.0240070009206831e-55  1.8796185053327972e-16  1.7913817300356410e-10  3.0534755169459377e-43  1.5898522798003660e-16  1.1107698845591924e-12  8.6531575712631181e-04  4.5361960243640806e-37  1.2440820427739107e-14  2.9240994784909112e-27  5.3798287762199325e-63  1.1971053330409761e-18  6.8682411179107655e-62  5.4078596317158746e-45  2.8581425768372572e-58  1.3359093944767934e-08  6.6301607596218547e-64  1.1733554511898017e-03  6.1017567856288875e-09  6.7166010745521535e-15  4.2108784916449526e-01  2.2599486331929626e+00  1.9101462021478901e+00  2.5460380953896717e-26  1.5457504234067136e-12  4.5847857826424252e-09  6.0896040247466751e-05  2.4501982374912630e-09  7.0260308970310063e-04  5.8707356337557349e-37  3.2364141239860263e-22  1.3097813010530395e-33  1.7371517967541510e-25  7.3253563552620207e-19  2.6773499699894458e-15  3.3463784761399821e-19  1.8668804730040104e-21  6.3425982775107364e-30  4.1579531298976193e-13  2.4840029375339627e-02  1.1502118317159973e-27  1.7851204647979817e-07  9.8197175792876927e-06  1.2512843436197705e-03  1.2172387483912606e-07  1.2555428245005975e-25  2.5511427090355299e-50  4.9923055945178389e-07  2.0982953750966541e-35  7.7796334694719456e-29  2.7659822814208960e-41  1.2018360111042059e-38  6.3239931602861543e-09  2.8114136838255592e-48  3.6973264394014132e-06  2.6749902039332925e-12  1.6311738336727899e-01  2.1107403288043949e-15  1.0866432723366625e-06  1.8657239064309533e-34  1.2225896162052239e-17  1.6090435974461008e-24  3.5218677410717891e-16  1.6840806885842483e-18  8.6118305936979558e-40  2.8796627150300225e-01  5.7712604661445286e-37  5.6055182600419882e-03  1.8213537815032572e-19  1.7421896159083166e-12  3.3923294774076482e-36  1.0268506999932598e-44  1.6227606492100355e-05  1.6284686408784972e-06  2.4749450088164572e-03  1.6344869061139355e-37  3.5850337036097427e-17  2.2291807183683272e-23  1.8197992311698902e-21  2.0772153883425686e-09  4.8469651987704467e-14  6.4342003206495722e-35  1.7719555416245520e-31  3.8276198902051558e-53  2.8885818226977671e+00  3.0379631181626872e+00  4.0441559872198978e-48  5.5600475175566686e-22  2.7954118359322061e-20  1.0658142830990421e-62  2.7907856235300218e-43  7.1019114221254705e-15  4.8591811390948446e-08  1.3020973599263566e-44  2.3257878235641438e-05  2.7086605507811767e-53  4.7928103821485222e-39  7.8079839599761879e-30  5.8924721233763180e-03  6.2522199515683091e-05  4.1682030219932132e-04  3.6063205494986286e-30  3.2620800256415826e-12  1.7224751611276591e-04  8.8439447920417860e-07  2.1433034308954694e-35  3.3134993892532651e-35  3.5971965360730098e-03  2.6288622115778548e-01  3.4116161276980118e-18  4.5608106010328423e-08  1.6667301785777840e-20  5.3072512274726136e-01  1.3795084192289351e-11  6.3839511426186863e-10  1.2478049004179679e-17  3.3337351724574491e+00  2.4087944000677110e-54  9.0424678601067038e-02  2.1029882231348820e+00  1.5933789018462491e-12  8.9686039571826720e-03  5.8842687176458589e-06  1.6234704932921928e-64  4.1944926758559920e-51  6.4565194090022493e-46  1.9059563169576108e-57  2.0361236024873146e-13  3.5233754377284879e-06  8.2165204085415150e-05  2.1156847231700506e-33  2.8330845917813590e-50  1.3745078298829518e-19  6.1218322490674956e-03  3.6660430166294259e-05  7.2023396617339258e-20  4.0438561096055327e-46  2.3270867339542023e-01  5.0218972849756739e-46  4.6193575893462493e-08  5.6686377806824978e-34  1.1060164198657587e-30  8.6333375563584153e-04  3.4989896201773767e-06  6.3061159568024102e-05  1.1293721636943575e-04  9.0954790615103102e-07  4.7842463473272030e-15  1.3665437253002630e-12  9.7927725560628871e-04  4.9125626498032882e-32  3.7993333423023767e-39  2.0907917322505611e-27  6.5613534398199252e-24  9.8269298597912612e-16  2.0886254558612780e-18  8.9472152081368371e-15  1.9143157964325666e-41  6.8052679751617044e-45  3.9618157194257377e-18  2.6255112640472750e-03  5.5505001939212806e-01  6.8556678817002492e-39  2.0222406399447660e-09  5.6701082358390882e-45  1.7800772704247911e-10  3.1952369777554629e-07  6.5820927829429823e-33  1.5782687199432283e-07  1.3930359350943103e-15  5.1745210776165084e-16  9.1108829023171034e-01  1.6971225880968349e-08  1.2344896935498602e-48  9.8604554068894260e-05  4.9056484633777973e-14  1.1411890240381362e-08  3.0756773585326257e-33  2.7428440426058220e-12  1.1795783418478998e+00  6.6620456941868584e-19  1.7701020367075250e-24  1.2421203141026516e-20  2.2075736056752733e-02  1.3689559093129206e-65  1.0678573608361304e-10  6.1823086742969125e-05  2.4494522776676696e-60  4.4485078746582116e-05  5.6490687675737059e-04  1.3365507180667809e-12  1.9259453747174592e-10  2.7379775919662051e-24  2.5363509356748782e-17  9.9360262786512024e-57  8.3196999877550537e-01  2.0008988206371106e-46  5.9638668084474983e-29  4.9951773894931964e-14  5.3609125309306004e-25  2.1559125631074830e-02  1.2457353425058177e-03  1.1917071843209169e-17  1.6322938067562397e-30  2.5947127986358204e-21  1.0486519925095982e-50  5.0713012591378714e-42  1.0581298120228508e-42  3.2363632074497116e-08  1.2431433764804651e-10  3.2808549937310771e-13  6.4495473956716025e-11  2.9306519584541967e-02  1.5916271634826780e-12  1.3967628814041211e-03  2.6538855009726674e-23  2.1428483393178489e-20  1.2274704699162702e-09  1.2502630271186599e-61  3.8431837259460854e-41  3.3124080060509674e-02  8.5095352956789213e-40  2.9651302412547512e-62  5.5081146212411695e-64  2.9179134893996310e-53  2.2142282274943336e-55  3.6150158085389280e-39  5.9864057702491706e-27  1.3646679886108109e-22  4.1767982445949669e-39  5.6596109631538606e-48  4.3627018264254098e-19  4.9197961138187635e-15  6.2947721537409121e-13  3.1599172375478308e-19  2.6648284692247535e-07  4.7526723520506381e-59  1.0995956444456726e-57  4.1409484931563154e-55  3.7696065321808792e-01  2.1229590621155887e-02  3.0494008523341283e-02  1.0951030458089293e-22  2.6877900834977023e-34  2.0346642155054107e-51  1.0068990988528218e-21  2.3237240190018568e-36  1.8959165604175903e-32  1.9198946204626733e-22  1.3868440569265183e-55  2.8675570696303925e-42  7.9419996704948720e-40  1.7816038239732732e-29  1.6008638939912718e-15  2.3547192366800106e-03  2.7453769167686600e-04  9.3233149588075031e-03  5.1144028334359451e-02  2.2697725316569295e-01  9.7371080505263908e-14  7.9051395746825062e-37  5.0867031522527136e-27  3.4624685914914034e-40  4.9568950595864901e-12  2.4806376285819300e-48  1.0344804409962283e-27  1.2428380400392089e-06  1.7947108321449493e-17  1.7471557504208853e-47  1.6489036691476039e-46  1.8940648559793959e-28  7.9619516794355175e-26  4.7846599283162685e-28  5.2378067224515948e-32  4.7229382376905520e-21  1.0631025921079540e-57  1.3354577641211008e-54  2.5472792700984723e-10  1.2999934516023980e-25  6.1759817060399687e-11  1.5856217897365426e-35  1.7122027833808897e-31  2.4290014019863357e-31  3.3119820056333431e-25  1.1513363498906867e-30  1.8662577081818179e-06  1.2317193329014908e-02  2.1018185496504020e-46  1.5123779748054776e-11  6.9768274465603425e-14  4.2559156527074279e-08  1.1859413805432824e-27  8.8451367583239037e-23  3.4667330916390687e-27  8.4546445641079174e-39  2.7270807553629655e-31  1.6726924492966198e-12  1.3723653816850295e-04  2.2071848038204594e-21  1.3626350096509841e-13  5.1351215588451643e-14  1.0452138351485846e-25  3.4193669578826291e-01  2.7024155272913451e-53  1.5720864687691937e-08  8.8494340158415742e-08  2.2903468351141888e-37  1.8173574422645130e-10  2.0987571725563260e-26  1.0075815250347853e-65  1.4754900772052144e-65  1.6063819584372530e-30  2.7709076968230717e-01  6.0873519679510559e-29  3.5302759898558337e-58  4.4930445904333915e-01  3.5460534005901182e-54  6.1381619384506826e-10  2.0086941959600335e-08  1.3255824597929507e-19  2.4688560372204969e-04  1.2596912662882957e-48  3.8498744651044504e-19  9.1444884817630205e-21  6.3158783540665285e-22  4.8592399643785298e-37  6.7139823509690883e-03  1.1947544554929808e-01  7.9394333682717877e-25  3.1136245844361363e-25  1.6547480926433844e+00  9.7769821011908628e-34  2.9558783673307825e-66  1.6122324512008931e-25  3.1815777419799319e-22  7.1938383136482724e-06  1.2397626570540163e-01  1.6431417629172359e-17  1.5330870390939895e-35  1.2391864706578157e-33  1.2319252802249521e-02  3.1393854466526055e-42  3.1254782889959454e-34  2.2760637442948635e-16  2.5182854480006024e-26  7.3919159986367058e-62  8.9395406604302100e-45  2.1859741474278767e-48  3.0414054742202232e-04  4.6272470816346205e-32  2.5791188871947198e-17  2.6522562485896709e-13  1.1278191471194247e-10  1.2038498012536566e-36  1.1552172386043797e-53  8.7142139579300048e-38  1.0126518717483581e-37  9.7374756361757711e-42  3.0111097272821298e-34  1.5102683472591590e-31  3.2137528135917265e-40  1.3206773084717389e-36  7.9246050752678161e-47  1.3878555601012053e-44  1.5243050016221797e-19  5.6528648606282743e-46  6.6070783104955975e-04  1.2654271703846773e-52  3.5976573207363374e-24  1.0346528646425761e-14  7.8400963236329007e-30  1.0036444133742996e-49  1.1199782685076214e-28  2.1640554595350159e-48  9.8525387538485951e-53  1.7146478727098520e-56  1.0525594838756663e-07  1.4317814907805161e-20  1.6206948486091809e-14  5.7227892268834311e-02  1.5400157411871027e