<?xml version="1.0"?>
<VTKFile type="UnstructuredGrid"  version="0.1"  >
<UnstructuredGrid>
<Piece  NumberOfPoints="961" NumberOfCells="1800">
<Points>
<DataArray  type="Float64"  NumberOfComponents="3"  format="ascii">0 0 0  0.03333333333333333 0 0  0.06666666666666667 0 0  0.1 0 0  0.1333333333333333 0 0  0.1666666666666667 0 0  0.2 0 0  0.2333333333333333 0 0  0.2666666666666667 0 0  0.3 0 0  0.3333333333333333 0 0  0.3666666666666666 0 0  0.4 0 0  0.4333333333333333 0 0  0.4666666666666667 0 0  0.5 0 0  0.5333333333333333 0 0  0.5666666666666667 0 0  0.6 0 0  0.6333333333333333 0 0  0.6666666666666666 0 0  0.7 0 0  0.7333333333333333 0 0  0.7666666666666667 0 0  0.8 0 0  0.8333333333333334 0 0  0.8666666666666667 0 0  0.9 0 0  0.9333333333333333 0 0  0.9666666666666667 0 0  1 0 0  0 0.03333333333333333 0  0.03333333333333333 0.03333333333333333 0  0.06666666666666667 0.03333333333333333 0  0.1 0.03333333333333333 0  0.1333333333333333 0.03333333333333333 0  0.1666666666666667 0.03333333333333333 0  0.2 0.03333333333333333 0  0.2333333333333333 0.03333333333333333 0  0.2666666666666667 0.03333333333333333 0  0.3 0.03333333333333333 0  0.3333333333333333 0.03333333333333333 0  0.3666666666666666 0.03333333333333333 0  0.4 0.03333333333333333 0  0.4333333333333333 0.03333333333333333 0  0.4666666666666667 0.03333333333333333 0  0.5 0.03333333333333333 0  0.5333333333333333 0.03333333333333333 0  0.5666666666666667 0.03333333333333333 0  0.6 0.03333333333333333 0  0.6333333333333333 0.03333333333333333 0  0.6666666666666666 0.03333333333333333 0  0.7 0.03333333333333333 0  0.7333333333333333 0.03333333333333333 0  0.7666666666666667 0.03333333333333333 0  0.8 0.03333333333333333 0  0.8333333333333334 0.03333333333333333 0  0.8666666666666667 0.03333333333333333 0  0.9 0.03333333333333333 0  0.9333333333333333 0.03333333333333333 0  0.9666666666666667 0.03333333333333333 0  1 0.03333333333333333 0  0 0.06666666666666667 0  0.03333333333333333 0.06666666666666667 0  0.06666666666666667 0.06666666666666667 0  0.1 0.06666666666666667 0  0.1333333333333333 0.06666666666666667 0  0.1666666666666667 0.06666666666666667 0  0.2 0.06666666666666667 0  0.2333333333333333 0.06666666666666667 0  0.2666666666666667 0.06666666666666667 0  0.3 0.06666666666666667 0  0.3333333333333333 0.06666666666666667 0  0.3666666666666666 0.06666666666666667 0  0.4 0.06666666666666667 0  0.4333333333333333 0.06666666666666667 0  0.4666666666666667 0.06666666666666667 0  0.5 0.06666666666666667 0  0.5333333333333333 0.06666666666666667 0  0.5666666666666667 0.06666666666666667 0  0.6 0.06666666666666667 0  0.6333333333333333 0.06666666666666667 0  0.6666666666666666 0.06666666666666667 0  0.7 0.06666666666666667 0  0.7333333333333333 0.06666666666666667 0  0.7666666666666667 0.06666666666666667 0  0.8 0.06666666666666667 0  0.8333333333333334 0.06666666666666667 0  0.8666666666666667 0.06666666666666667 0  0.9 0.06666666666666667 0  0.9333333333333333 0.06666666666666667 0  0.9666666666666667 0.06666666666666667 0  1 0.06666666666666667 0  0 0.1 0  0.03333333333333333 0.1 0  0.06666666666666667 0.1 0  0.1 0.1 0  0.1333333333333333 0.1 0  0.1666666666666667 0.1 0  0.2 0.1 0  0.2333333333333333 0.1 0  0.2666666666666667 0.1 0  0.3 0.1 0  0.3333333333333333 0.1 0  0.3666666666666666 0.1 0  0.4 0.1 0  0.4333333333333333 0.1 0  0.4666666666666667 0.1 0  0.5 0.1 0  0.5333333333333333 0.1 0  0.5666666666666667 0.1 0  0.6 0.1 0  0.6333333333333333 0.1 0  0.6666666666666666 0.1 0  0.7 0.1 0  0.7333333333333333 0.1 0  0.7666666666666667 0.1 0  0.8 0.1 0  0.8333333333333334 0.1 0  0.8666666666666667 0.1 0  0.9 0.1 0  0.9333333333333333 0.1 0  0.9666666666666667 0.1 0  1 0.1 0  0 0.1333333333333333 0  0.03333333333333333 0.1333333333333333 0  0.06666666666666667 0.1333333333333333 0  0.1 0.1333333333333333 0  0.1333333333333333 0.1333333333333333 0  0.1666666666666667 0.1333333333333333 0  0.2 0.1333333333333333 0  0.2333333333333333 0.1333333333333333 0  0.2666666666666667 0.1333333333333333 0  0.3 0.1333333333333333 0  0.3333333333333333 0.1333333333333333 0  0.3666666666666666 0.1333333333333333 0  0.4 0.1333333333333333 0  0.4333333333333333 0.1333333333333333 0  0.4666666666666667 0.1333333333333333 0  0.5 0.1333333333333333 0  0.5333333333333333 0.1333333333333333 0  0.5666666666666667 0.1333333333333333 0  0.6 0.1333333333333333 0  0.6333333333333333 0.1333333333333333 0  0.6666666666666666 0.1333333333333333 0  0.7 0.1333333333333333 0  0.7333333333333333 0.1333333333333333 0  0.7666666666666667 0.1333333333333333 0  0.8 0.1333333333333333 0  0.8333333333333334 0.1333333333333333 0  0.8666666666666667 0.1333333333333333 0  0.9 0.1333333333333333 0  0.9333333333333333 0.1333333333333333 0  0.9666666666666667 0.1333333333333333 0  1 0.1333333333333333 0  0 0.1666666666666667 0  0.03333333333333333 0.1666666666666667 0  0.06666666666666667 0.1666666666666667 0  0.1 0.1666666666666667 0  0.1333333333333333 0.1666666666666667 0  0.1666666666666667 0.1666666666666667 0  0.2 0.1666666666666667 0  0.2333333333333333 0.1666666666666667 0  0.2666666666666667 0.1666666666666667 0  0.3 0.1666666666666667 0  0.3333333333333333 0.1666666666666667 0  0.3666666666666666 0.1666666666666667 0  0.4 0.1666666666666667 0  0.4333333333333333 0.1666666666666667 0  0.4666666666666667 0.1666666666666667 0  0.5 0.1666666666666667 0  0.5333333333333333 0.1666666666666667 0  0.5666666666666667 0.1666666666666667 0  0.6 0.1666666666666667 0  0.6333333333333333 0.1666666666666667 0  0.6666666666666666 0.1666666666666667 0  0.7 0.1666666666666667 0  0.7333333333333333 0.1666666666666667 0  0.7666666666666667 0.1666666666666667 0  0.8 0.1666666666666667 0  0.8333333333333334 0.1666666666666667 0  0.8666666666666667 0.1666666666666667 0  0.9 0.1666666666666667 0  0.9333333333333333 0.1666666666666667 0  0.9666666666666667 0.1666666666666667 0  1 0.1666666666666667 0  0 0.2 0  0.03333333333333333 0.2 0  0.06666666666666667 0.2 0  0.1 0.2 0  0.1333333333333333 0.2 0  0.1666666666666667 0.2 0  0.2 0.2 0  0.2333333333333333 0.2 0  0.2666666666666667 0.2 0  0.3 0.2 0  0.3333333333333333 0.2 0  0.3666666666666666 0.2 0  0.4 0.2 0  0.4333333333333333 0.2 0  0.4666666666666667 0.2 0  0.5 0.2 0  0.5333333333333333 0.2 0  0.5666666666666667 0.2 0  0.6 0.2 0  0.6333333333333333 0.2 0  0.6666666666666666 0.2 0  0.7 0.2 0  0.7333333333333333 0.2 0  0.7666666666666667 0.2 0  0.8 0.2 0  0.8333333333333334 0.2 0  0.8666666666666667 0.2 0  0.9 0.2 0  0.9333333333333333 0.2 0  0.9666666666666667 0.2 0  1 0.2 0  0 0.2333333333333333 0  0.03333333333333333 0.2333333333333333 0  0.06666666666666667 0.2333333333333333 0  0.1 0.2333333333333333 0  0.1333333333333333 0.2333333333333333 0  0.1666666666666667 0.2333333333333333 0  0.2 0.2333333333333333 0  0.2333333333333333 0.2333333333333333 0  0.2666666666666667 0.2333333333333333 0  0.3 0.2333333333333333 0  0.3333333333333333 0.2333333333333333 0  0.3666666666666666 0.2333333333333333 0  0.4 0.2333333333333333 0  0.4333333333333333 0.2333333333333333 0  0.4666666666666667 0.2333333333333333 0  0.5 0.2333333333333333 0  0.5333333333333333 0.2333333333333333 0  0.5666666666666667 0.2333333333333333 0  0.6 0.2333333333333333 0  0.6333333333333333 0.2333333333333333 0  0.6666666666666666 0.2333333333333333 0  0.7 0.2333333333333333 0  0.7333333333333333 0.2333333333333333 0  0.7666666666666667 0.2333333333333333 0  0.8 0.2333333333333333 0  0.8333333333333334 0.2333333333333333 0  0.8666666666666667 0.2333333333333333 0  0.9 0.2333333333333333 0  0.9333333333333333 0.2333333333333333 0  0.9666666666666667 0.2333333333333333 0  1 0.2333333333333333 0  0 0.2666666666666667 0  0.03333333333333333 0.2666666666666667 0  0.06666666666666667 0.2666666666666667 0  0.1 0.2666666666666667 0  0.1333333333333333 0.2666666666666667 0  0.1666666666666667 0.2666666666666667 0  0.2 0.2666666666666667 0  0.2333333333333333 0.2666666666666667 0  0.2666666666666667 0.2666666666666667 0  0.3 0.2666666666666667 0  0.3333333333333333 0.2666666666666667 0  0.3666666666666666 0.2666666666666667 0  0.4 0.2666666666666667 0  0.4333333333333333 0.2666666666666667 0  0.4666666666666667 0.2666666666666667 0  0.5 0.2666666666666667 0  0.5333333333333333 0.2666666666666667 0  0.5666666666666667 0.2666666666666667 0  0.6 0.2666666666666667 0  0.6333333333333333 0.2666666666666667 0  0.6666666666666666 0.2666666666666667 0  0.7 0.2666666666666667 0  0.7333333333333333 0.2666666666666667 0  0.7666666666666667 0.2666666666666667 0  0.8 0.2666666666666667 0  0.8333333333333334 0.2666666666666667 0  0.8666666666666667 0.2666666666666667 0  0.9 0.2666666666666667 0  0.9333333333333333 0.2666666666666667 0  0.9666666666666667 0.2666666666666667 0  1 0.2666666666666667 0  0 0.3 0  0.03333333333333333 0.3 0  0.06666666666666667 0.3 0  0.1 0.3 0  0.1333333333333333 0.3 0  0.1666666666666667 0.3 0  0.2 0.3 0  0.2333333333333333 0.3 0  0.2666666666666667 0.3 0  0.3 0.3 0  0.3333333333333333 0.3 0  0.3666666666666666 0.3 0  0.4 0.3 0  0.4333333333333333 0.3 0  0.4666666666666667 0.3 0  0.5 0.3 0  0.5333333333333333 0.3 0  0.5666666666666667 0.3 0  0.6 0.3 0  0.6333333333333333 0.3 0  0.6666666666666666 0.3 0  0.7 0.3 0  0.7333333333333333 0.3 0  0.7666666666666667 0.3 0  0.8 0.3 0  0.8333333333333334 0.3 0  0.8666666666666667 0.3 0  0.9 0.3 0  0.9333333333333333 0.3 0  0.9666666666666667 0.3 0  1 0.3 0  0 0.3333333333333333 0  0.03333333333333333 0.3333333333333333 0  0.06666666666666667 0.3333333333333333 0  0.1 0.3333333333333333 0  0.1333333333333333 0.3333333333333333 0  0.1666666666666667 0.3333333333333333 0  0.2 0.3333333333333333 0  0.2333333333333333 0.3333333333333333 0  0.2666666666666667 0.3333333333333333 0  0.3 0.3333333333333333 0  0.3333333333333333 0.3333333333333333 0  0.3666666666666666 0.3333333333333333 0  0.4 0.3333333333333333 0  0.4333333333333333 0.3333333333333333 0  0.4666666666666667 0.3333333333333333 0  0.5 0.3333333333333333 0  0.5333333333333333 0.33333333333333
[...]
<PointData  Scalars="f_18-0"> 
<DataArray  type="Float64"  Name="f_18-0"  format="ascii">-5.3008491974878057e-15  5.1798800646710239e-14  2.4472939737550908e-14  -1.6981325631234202e-13  -2.6433182732929410e-13  1.7151435042620620e-14  4.1697038291086200e-13  5.5827543937583259e-13  6.1126489776548715e-13  1.0095562212048094e-12  1.7939053986708893e-12  2.5659452658725649e-12  2.8820364920333481e-12  2.5776518302622866e-12  1.8467513732015429e-12  1.0602268339691874e-12  4.8743272358177322e-13  1.7942266653727655e-13  5.2884553707061266e-14  1.2481435944561043e-14  2.3585208014467584e-15  3.5684761249040070e-16  4.3232728852432501e-17  4.1930539992669662e-18  3.2586983936594565e-19  2.0203199251645184e-20  1.0153776650816854e-21  4.1574182773708885e-23  3.5816332595782874e-25  3.4189849163409663e-25  2.7219999295137939e-26  5.3103511687912629e-14  -4.1639193532774996e-14  -1.2226271391073871e-13  1.1773730851928668e-13  5.8190169496308535e-13  6.7286814769528355e-13  8.9808626754071701e-13  3.6197102174755054e-12  1.1656022018355368e-11  2.6475863341141419e-11  4.6292589789734777e-11  6.4468560369463756e-11  7.1983955099914456e-11  6.4424016250246473e-11  4.6183207649676273e-11  2.6512695976168939e-11  1.2188666226607385e-11  4.4873319436447042e-12  1.3229079060282256e-12  3.1229108964816543e-13  5.9029351138566762e-14  8.9340031053175172e-15  1.0826328741586284e-15  1.0504608498247782e-16  8.1603622251793657e-18  5.0766820770350560e-19  2.5295254672612159e-20  9.9902257970697669e-22  3.4268404910362125e-23  7.0357184149174532e-25  -3.4543271855564465e-25  -1.1143966502783517e-13  -5.7249528128159181e-14  3.5515093078610893e-13  4.4341570587797768e-13  1.2443661466614528e-14  4.2552654626776953e-12  2.6512803542296798e-11  9.2644930964362693e-11  2.4711919437186639e-10  5.3252057946162581e-10  9.2597300859792382e-10  1.2921852841133559e-09  1.4443316823486742e-09  1.2927760568918324e-09  9.2669443113294805e-10  5.3201360674332392e-10  2.4460539931953794e-10  9.0061842696723981e-11  2.6553649989638285e-11  6.2689954932421960e-12  1.1850768459687866e-12  1.7937333776778812e-13  2.1738317308123037e-14  2.1093364409777378e-15  1.6387897191505096e-16  1.0193997328609737e-17  5.0760381079254232e-19  2.0279391352404729e-20  6.4490178182710163e-22  1.4367582586872899e-23  2.1149113822217591e-24  -6.3946640936451814e-14  4.3466776010703775e-13  7.1856577890910704e-14  1.1112990576869104e-12  2.0032487105752581e-11  1.0767807316763644e-10  4.3127094076421521e-10  1.4393257517791147e-09  3.9132705744346451e-09  8.5301411839217476e-09  1.4870063664334800e-08  2.0746863719326061e-08  2.3181668596245532e-08  2.0747614377436307e-08  1.4873666906496689e-08  8.5402016320263608e-09  3.9272544187105841e-09  1.4462766116502442e-09  4.2650753244799348e-10  1.0071399318364675e-10  1.9042367819084462e-11  2.8827485709699401e-12  3.4941304983118338e-13  3.3908971901311954e-14  2.6346989929326691e-15  1.6390338345421189e-16  8.1645843918823354e-18  3.2552479827285895e-19  1.0365432498445355e-20  2.8242549666747718e-22  -3.3873514489957679e-25  7.8453003733116823e-13  -8.4335690587856297e-14  3.1096820836101865e-12  4.1126488279650423e-11  2.4965487444916276e-10  1.2777091460330691e-09  5.4474216547601691e-09  1.8571862996580371e-08  5.0464594267378237e-08  1.0967523736624223e-07  1.9092681771136111e-07  2.6628429799561697e-07  2.9752114771002316e-07  2.6629748715771556e-07  1.9093270462480508e-07  1.0965616160850855e-07  5.0441449947097445e-08  1.8582328266123676e-08  5.4818709216859477e-09  1.2949074644162529e-09  2.4490862290802121e-10  3.7085804221491780e-11  4.4961425398880338e-12  4.3641270248846806e-13  3.3914110316449043e-14  2.1100613860520576e-15  1.0510664983321880e-16  4.1914931472236131e-18  1.3411031353821582e-19  3.3575925215194011e-21  7.4263619236430537e-23  -1.8642625576008757e-13  3.0454647490641527e-12  5.1024333723509306e-11  3.8083372920973634e-10  2.4913915676744150e-09  1.3319292411504804e-08  5.6451810423529312e-08  1.9104444596852421e-07  5.1810359052337897e-07  1.1258877616326229e-06  1.9598442127991397e-06  2.7327781593330771e-06  3.0528578326698213e-06  2.7325427152616338e-06  1.9596548028279415e-06  1.1259044366059969e-06  5.1816666527385736e-07  1.9099213045108895e-07  5.6373919165442637e-08  1.3323208300033363e-08  2.5209968995221317e-09  3.8189755213206334e-10  4.6314985854944556e-11  4.4966969956314535e-12  3.4951521471501133e-13  2.1749194518729163e-14  1.0835120671400157e-15  4.3221186991321027e-17  1.3790773770574784e-18  3.5350814537524736e-20  8.0031847935655534e-22  -6.2624139778434015e-13  4.1353323844988742e-11  3.8054203818772260e-10  3.1167823642447408e-09  2.0790495500575516e-08  1.0973086773150059e-07  4.6358069646290775e-07  1.5701157175284615e-06  4.2582924706090840e-06  9.2465368615875470e-06  1.6081663389709116e-05  2.2410475975032551e-05  2.5028815921665323e-05  2.2404558625962184e-05  1.6073665621828807e-05  9.2406235270979157e-06  4.2559222568979926e-06  1.5699567376804045e-06  4.6375975062000918e-07  1.0968348451586563e-07  2.0767573944066084e-08  3.1477426240922534e-09  3.8191729229414757e-10  3.7093271871446394e-11  2.8839215667653744e-12  1.7949271864682263e-13  8.9434165602427652e-15  3.5672296208786240e-16  1.1393227890036291e-17  2.9204103135972679e-19  5.5002778297989500e-21  2.0906261651720708e-11  2.4931351779256871e-10  2.4878415784273708e-09  2.0776331927589410e-08  1.3686961377007006e-07  7.2216071268977730e-07  3.0537071291783593e-06  1.0331456272745829e-05  2.7974970856462765e-05  6.0661520392872336e-05  1.0538658518109783e-04  1.4674402777329598e-04  1.6382795356039887e-04  1.4666917279723202e-04  1.0528689421349212e-04  6.0585038783235734e-05  2.7934602496222587e-05  1.0316748020952599e-05  3.0509581085867183e-06  7.2232176264629113e-07  1.3688848376157125e-07  2.0764001157321028e-08  2.5208614938836185e-09  2.4495276032235777e-10  1.9051315426078602e-11  1.1860373994156657e-12  5.9104608403705272e-14  2.3579149841769325e-15  7.5319837379442161e-17  1.9203129389266744e-18  4.0610405121840637e-20  1.1403387695540015e-10  1.2727952230715931e-09  1.3290359024989061e-08  1.0958943014617626e-07  7.2174459677133107e-07  3.8103345865138115e-06  1.6084525441374069e-05  5.4318011478008442e-05  1.4683180814106878e-04  3.1782120629642735e-04  5.5116451410556285e-04  7.6639090005748561e-04  8.5503869544951256e-04  7.6562894414669081e-04  5.5012854134339523e-04  3.1701526247647504e-04  1.4641138985578439e-04  5.4162360279267087e-05  1.6042466804893185e-05  3.8034953703027597e-06  7.2171111214173538e-07  1.0959005683410952e-07  1.3316396686385984e-08  1.2948270932178596e-09  1.0075508086632448e-10  6.2745884330027613e-12  3.1275805302484214e-13  1.2479072247264952e-14  3.9847984332307627e-16  1.0201151139288400e-17  2.1152862591993219e-19  4.3438519940431075e-10  5.4236706854878866e-09  5.6290565722297494e-08  4.6272699757146325e-07  3.0504022509840130e-06  1.6076849152820436e-05  6.7740478109978852e-05  2.2832225911559206e-04  6.1560947216588542e-04  1.3284573265414218e-03  2.2969181813262784e-03  3.1863443378804764e-03  3.5508118662451768e-03  3.1804755358341716e-03  2.2888099059982527e-03  1.3219286792654646e-03  6.1202449092205189e-04  2.2693876515104491e-04  6.7361274800183715e-05  1.6001609551344344e-05  3.0416038818024115e-06  4.6256746318610611e-07  5.6278635411182625e-08  5.4776954106565124e-09  4.2654216566901064e-10  2.6575986119338604e-11  1.3250928646638821e-12  5.2877293400173599e-14  1.6892141283219293e-15  4.3227056783146930e-17  8.6044775182796285e-19  1.4264936938537900e-09  1.8479253029558268e-08  1.9038003591729114e-07  1.5664093842070211e-06  1.0315762068911131e-05  5.4270837312667559e-05  2.2823645140158307e-04  7.6703721294795499e-04  2.0599887093993748e-03  4.4247918256220134e-03  7.6134153101959220e-03  1.0518564237068434e-02  1.1697219885046623e-02  1.0482223600494523e-02  7.5631390731482513e-03  4.3840978691058914e-03  2.0371985896093870e-03  7.5784260073710448e-04  2.2558298588051063e-04  5.3725283108449639e-05  1.0236892968504988e-05  1.5602814174659528e-06  1.9019390699386340e-07  1.8539585257720408e-08  1.4452140857407393e-09  9.0109508937431212e-11  4.4947916078988088e-12  1.7941586207277049e-13  5.7328411256836861e-15  1.4627055416388665e-16  3.0687465840368874e-18  3.8783952664063742e-09  5.0174117862538902e-08  5.1599990299083540e-07  4.2462695378457864e-06  2.7922201016849242e-05  1.4665742309526763e-04  6.1519799909691951e-04  2.0594147004761587e-03  5.5013099048548579e-03  1.1734681434102445e-02  2.0033500258901507e-02  2.7493483871416785e-02  3.0471687332161879e-02  2.7330535582357741e-02  1.9802964622278259e-02  1.1543312653539663e-02  5.3919044928637614e-03  2.0142406741989350e-03  6.0165975030405364e-04  1.4376016780515694e-04  2.7481653873056696e-05  4.2019091050662725e-06  5.1363506610049642e-07  5.0180089033811718e-08  3.9180497022711659e-09  2.4455101039557002e-10  1.2206451212314542e-11  4.8743933643409984e-13  1.5568977461301322e-14  3.9858148347127847e-16  8.3635896663759099e-18  8.4643095826978019e-09  1.0896495311923693e-07  1.1207352365540159e-06  9.2168735605168896e-06  6.0528972593010327e-05  3.1736426305359301e-04  1.3272878306970480e-03  4.4227692101873111e-03  1.1732942226145571e-02  2.4787303801696633e-02  4.1860457400507388e-02  5.6934614196125249e-02  6.2831831845678698e-02  5.6430594716624087e-02  4.1118526724235188e-02  2.4139806268450713e-02  1.1346336304873174e-02  4.2583525555456138e-03  1.2767682385480198e-03  3.0622840502444250e-04  5.8783838259793328e-05  9.0265561664171228e-06  1.1077384866409090e-06  1.0856964248130367e-07  8.4969685707367999e-09  5.3116723934591204e-10  2.6537906264711948e-11  1.0601086972924101e-12  3.3877899259633318e-14  8.6988208367201209e-16  1.6582833453717921e-17  1.4756239914781961e-08  1.8958051188857479e-07  1.9500779792233448e-06  1.6025379980282295e-05  1.0513271219494421e-04  5.5027659049027727e-04  2.2946269170556585e-03  7.6096380089417954e-03  2.0031948060330269e-02  4.1867640278701337e-02  6.9884380859903325e-02  9.4171839457120335e-02  1.0347791893898907e-01  9.3048841169070765e-02  6.8158279617866635e-02  4.0275134427429644e-02  1.9031137636554115e-02  7.1685250300018129e-03  2.1560895982176255e-03  5.1915231546970119e-04  1.0015026774548191e-04  1.5462359817229931e-05  1.9073301873431475e-06  1.8773631390393467e-07  1.4738814999571780e-08  9.2328902877004296e-10  4.6184595600843407e-11  1.8459611372026227e-12  5.9095213466983788e-14  1.5010449422525688e-15  3.0853646859056173e-17  2.0581311372129818e-08  2.6430536353490187e-07  2.7184390831908383e-06  2.2327867076285159e-05  1.4637043394882267e-04  7.6509532194554285e-04  3.1832162155533300e-03  1.0515345437260572e-02  2.7504047789666693e-02  5.6988223452849554e-02  9.4265330527443916e-02  1.2613994108294224e-01  1.3812980564543964e-01  1.2422248644973875e-01  9.1209767161617342e-02  5.4040651983894100e-02  2.5574613867080473e-02  9.6397879765689164e-03  2.9035537264068740e-03  7.0151639554872182e-04  1.3605061507834354e-04  2.1137329801849612e-05  2.6233491913183105e-06  2.5953579780538540e-07  2.0453058928500745e-08  1.2844885960130413e-09  6.4339992101979792e-11  2.5751913215140250e-12  8.2343394100895335e-14  2.0791681791978426e-15  5.6223527444665313e-17  2.2993291509988651e-08  2.9526425406385065e-07  3.0365277621869963e-06  2.4934799226695603e-05  1.6340493969816406e-04  8.5362705154778213e-04  3.5480714419643001e-03  1.1700087511809999e-02  3.0516832008973087e-02  6.3002322707454636e-02  1.0383024818742506e-01  1.3852253599762790e-01  1.5136751137263180e-01  1.3588963171141560e-01  9.9553553104878040e-02  5.8786600483876822e-02  2.7705193245924062e-02  1.0407324239192309e-02  3.1320435076362656e-03  7.5850663940012198e-04  1.4783705644499340e-04  2.3115190913261614e-05  2.8871066365154392e-06  2.8716500581286764e-07  2.2721935569375943e-08  1.4306168250284815e-09  7.1783062706728827e-11  2.8770681197894339e-12  9.1358891308790671e-14  2.4432788837875779e-15  4.2183817532540659e-17  2.0582873018146194e-08  2.6429956091759148e-07  2.7181002203347794e-06  2.2321537547560790e-05  1.4630141000215540e-04  7.6450553516486713e-04  3.1795031943274280e-03  1.0495752544614448e-02  2.7425725447157396e-02  5.6768950459864180e-02  9.3803128620063708e-02  1.2532245244964096e-01  1.3682788187944522e-01  1.2236629539645209e-01  8.9018944616034851e-02  5.2080799676813214e-02  2.4318095723392948e-02  9.0739034595824063e-03  2.7233195625888428e-03  6.6018797617139937e-04  1.2915959717436199e-04  2.0301997492175743e-05  2.5494319249460349e-06  2.5476873654788592e-07  2.0228835393929542e-08  1.2763031385196792e-09  6.4201364915495127e-11  2.5639279061566382e-12  8.2302037653272837e-14  2.3034857087384022e-15  -5.8945421243236085e-17  1.4762822552893827e-08  1.8955869596650503e-07  1.9497252161328814e-06  1.6016779544539943e-05  1.0504231638765315e-04  5.4950510962862675e-04  2.2898070923503891e-03  7.5849286338697374e-03  1.9932417798084353e-02  4.1578736073664330e-02  6.9248160370341538e-02  9.3001065242571748e-02  1.0157403313492819e-01  9.0353425091233147e-02  6.5057273739106414e-02  3.7582006193629468e-02  1.7347507464046577e-02  6.4235612585358112e-03  1.9211641323730591e-03  4.6553937752901245e-04  9.1240319235243885e-05  1.4384210936404492e-05  1.8119267987346340e-06  1.8161708225152332e-07  1.4445602295901848e-08  9.1329468154878498e-10  4.5991336240403957e-11  1.8172458233341368e-12  6.3658469573855788e-14  8.6005592003843514e-16  7.4851044368552931e-17  8.4825981321721740e-09  1.0892113692393151e-07  1.1205911876109839e-06  9.2103615210337327e-06  6.0460964718932927e-05  3.1679925853077550e-04  1.3237566746186825e-03  4.4054929574227552e-03  1.1663813966036000e-02  2.4577049129876107e-02  4.1366570623783107e-02  5.5973124768274651e-02  6.1223773342331304e-02  5.4170914644852283e-02  3.8597311759344284e-02  2.2028908237381913e-02  1.0067783653046804e-02  3.7049030707950160e-03  1.1043355595953231e-03  2.6713266536624122e-04  5.2321928861550619e-05  8.2463817948878432e-06  1.0388576465698751e-06  1.0418342645518285e-07  8.2777196260565976e-09  5.2579159739513804e-10  2.6098826941018352e-11  1.0695680032191568e-12  3.8107856535522235e-14  -9.7798737283129340e-16  7.5612104441194162e-16  3.9040506351408089e-09  5.0135053705194215e-08  5.1595028639476711e-07  4.2433983542341585e-06  2.7886518500969601e-05  1.4638387826368542e-04  6.1347238788248253e-04  2.0513127891111432e-03  5.4700870475413886e-03  1.1636621040728996e-02  1.9786415726057084e-02  2.6980244369260158e-02  2.9584372433770181e-02  2.6087578158577669e-02  1.8452443656892883e-02  1.0449752148545219e-02  4.7484866577720448e-03  1.7410709646658539e-03  5.1744389950761371e-04  1.2480731432478612e-04  2.4369899767316101e-05  3.8266603410433632e-06  4.8083397800139128e-07  4.8070545624424938e-08  3.8104489762900406e-09  2.4397026982685936e-10  1.1388780396769704e-11  6.2489918351925907e-13  -4.1240929712906811e-15  1.8717375884112045e-15  5.0729863440081964e-16  1.4390058067009073e-09  1.8482577868876314e-08  1.9026960278997465e-07  1.5659072231748216e-06  1.0302366902636615e-05  5.4175681843820177e-05  2.2765572950427586e-04  7.6431264230703271e-04  2.0499373566390542e-03  4.3933490696023980e-03  7.5300909141277064e-03  1.0334948402814440e-02  1.1368928842619218e-02  1.0021350987791626e-02  7.0714228486819172e-03  3.9955636711603250e-03  1.8132518479446807e-03  6.6396753115510352e-04  1.9686698366702359e-04  4.7314102235571023e-05  9.1890001256231291e-06  1.4340923765586047e-06  1.7942852818366252e-07  1.7783223489653385e-08  1.4191537220173533e-09  8.9187197811206820e-11  3.9447004610665495e-12  3.7563714066566157e-13  -4.5482776999445940e-14  1.0997386006303591e-14  -2.9957500619374012e-15  4.2472765910646426e-10  5.4564352468063028e-09  5.6189173856695251e-08  4.6272938175704427e-07  3.0475579330926409e-06  1.6050948251629135e-05  6.7601491536848339e-05  2.2767670414696093e-04  6.1321978201681309e-04  1.3210584377785918e-03  2.2769818538801996e-03  3.1409285186518453e-03  3.4677517780771494e-03  3.0634634205896029e-03  2.1651767903314656e-03  1.2255449946700350e-03  5.5705055077399652e-04  2.0404809683455201e-04  6.0405071970949222e-05  1.4457727193700082e-05  2.7888228056940930e-06  4.3262199027119103e-07  5.3739106341524713e-08  5.2636423850285530e-09  4.3399127779221114e-10  2.2781621689746350e-11  1.8140184979397604e-12  6.3527931321837410e-14  -3.2596128875334258e-14  1.4324068554318014e-14  -7.1108217358771490e-15  1.0037167438763835e-10  1.2898080162907933e-09  1.3285960823653332e-08  1.0947507045032592e-07  7.2166033169153951e-07  3.8058171599747318e-06  1.6057499102856682e-05  5.4207168507210875e-05  1.4643082678042808e-04  3.1655987569660421e-04  5.4771899861085979e-04  7.5843949896269470e-04  8.4035722498628971e-04  7.4488667456894524e-04  5.2826608677791743e-04  3.0004547458217258e-04  1.3677411661730784e-04  5.0169067737053360e-05  1.4834347685998879e-05  3.5347345926778702e-06  6.7790419056813820e-07  1.0463301224923721e-07  1.2807255800629444e-08  1.2671836443567684e-09  1.0557001473644752e-10  2.9797636990606774e-12  1.3564646935257896e-12  -2.2612009020839976e-13  3.4869724464666633e-14  4.5663483437956149e-16  -4.5089579058901272e-15  1.8990266931977904e-11  2.4410043010575382e-10  2.5150298614176936e-09  2.0733622916909014e-08  1.3677774153185090e-07  7.2206915708942303e-07  3.0506669976325992e-06  1.0315868412750368e-05  2.7922956827837195e-05  6.0506604245324064e-05  1.0496362965608266e-04  1.4575599009600105e-04  1.6198602042166572e-04  1.4405274707121596e-04  1.0252473395878086e-04  5.8443982930415584e-05  2.6722100887176627e-05  9.8147437981613488e-06  2.8982967161710204e-06  6.8842745648663103e-07  1.3160935259668315e-07  2.0105864416350920e-08  2.4352913211344665e-09  2.5669834586046644e-10  1.5345891754790373e-11  1.0560723558847956e-12  5.2298836474472578e-13  -2.2355673096410781e-13  7.1588238425033853e-14  -1.7307267138437049e-14  4.7342294547388016e-15  2.8764137092712830e-12  3.6983700838381557e-11  3.8112947684358499e-10  3.1432192306125875e-09  2.0747640760744000e-08  1.0961572372370721e-07  4.6357259111737223e-07  1.5694365246871840e-06  4.2539847864558095e-06  9.2323270613203626e-06  1.6043543861093559e-05  2.2322107213369954e-05  2.4863269385133807e-05  2.2168074974339002e-05  1.5823120631320211e-05  9.0457151230983477e-06  4.1447800282053315e-06  1.5235808746154725e-06  4.4981819066288734e-07  1.0673533355696364e-07  2.0261256892847359e-08  3.0585037165607147e-09  3.8840211512403241e-10  3.7918568136357167e-11  3.7944782776956439e-13  1.2370191522371025e-12  -1.9980168152949216e-13  -2.0310531937054437e-14  3.4393487700745529e-14  -1.6797008167829171e-14  9.7273729591739092e-15  3.4878836285748923e-13  4.4857265657966776e-12  4.6234284778967081e-11  3.8141584789784691e-10  2.5187468432475593e-09  1.3314918024592686e-08  5.6349238067410277e-08  1.9092713492254039e-07  5.1798295656197562e-07  1.1252917092322049e-06  1.9576466071739457e-06  2.7271905628109834e-06  3.0421332306478096e-06  2.7170121633188445e-06  1.9429773804728417e-06  1.1128056769378091e-06  5.1075478598375003e-07  1.8802360627251161e-07  5.5505661606683042e-08  1.3091270445070888e-08  2.4680862316338462e-09  3.8731800401061870e-10  4.8245308773376708e-11  1.7222962176982949e-12  9.6703384519150920e-13  2.1970071945827464e-13  -1.9321354732819475e-13  7.1536467542899631e-14  -1.2176149428103287e-14  -2.3553902649231635e-15  4.9888771924848089e-15  3.3857784581290127e-14  4.3553886771531780e-13  4.4896324099844100e-12  3.7046218216540451e-11  2.4471944494556259e-10  1.2941928864895221e-09  5.4797166941957199e-09  1.8576913472141912e-08  5.0428594505676344e-08  1.0962206854803663e-07  1.9083460259159268e-07  2.6604648067428684e-07  2.9702151786997615e-07  2.6554824763383686e-07  1.9013471109639800e-07  1.0904995000751881e-07  5.0097504231664249e-08  1.8414106323627006e-08  5.4081851550998694e-09  1.2805379879832348e-09  2.5162076802161675e-10  3.7681772917633828e-11  2.1958087