<?xml version="1.0"?>
<VTKFile type="UnstructuredGrid"  version="0.1"  >
<UnstructuredGrid>
<Piece  NumberOfPoints="441" NumberOfCells="800">
<Points>
<DataArray  type="Float64"  NumberOfComponents="3"  format="ascii">-2 -2 0  -1.8 -2 0  -1.6 -2 0  -1.4 -2 0  -1.2 -2 0  -1 -2 0  -0.8 -2 0  -0.6000000000000001 -2 0  -0.3999999999999999 -2 0  -0.2 -2 0  0 -2 0  0.2000000000000002 -2 0  0.3999999999999999 -2 0  0.6000000000000001 -2 0  0.7999999999999998 -2 0  1 -2 0  1.2 -2 0  1.4 -2 0  1.6 -2 0  1.8 -2 0  2 -2 0  -2 -1.8 0  -1.8 -1.8 0  -1.6 -1.8 0  -1.4 -1.8 0  -1.2 -1.8 0  -1 -1.8 0  -0.8 -1.8 0  -0.6000000000000001 -1.8 0  -0.3999999999999999 -1.8 0  -0.2 -1.8 0  0 -1.8 0  0.2000000000000002 -1.8 0  0.3999999999999999 -1.8 0  0.6000000000000001 -1.8 0  0.7999999999999998 -1.8 0  1 -1.8 0  1.2 -1.8 0  1.4 -1.8 0  1.6 -1.8 0  1.8 -1.8 0  2 -1.8 0  -2 -1.6 0  -1.8 -1.6 0  -1.6 -1.6 0  -1.4 -1.6 0  -1.2 -1.6 0  -1 -1.6 0  -0.8 -1.6 0  -0.6000000000000001 -1.6 0  -0.3999999999999999 -1.6 0  -0.2 -1.6 0  0 -1.6 0  0.2000000000000002 -1.6 0  0.3999999999999999 -1.6 0  0.6000000000000001 -1.6 0  0.7999999999999998 -1.6 0  1 -1.6 0  1.2 -1.6 0  1.4 -1.6 0  1.6 -1.6 0  1.8 -1.6 0  2 -1.6 0  -2 -1.4 0  -1.8 -1.4 0  -1.6 -1.4 0  -1.4 -1.4 0  -1.2 -1.4 0  -1 -1.4 0  -0.8 -1.4 0  -0.6000000000000001 -1.4 0  -0.3999999999999999 -1.4 0  -0.2 -1.4 0  0 -1.4 0  0.2000000000000002 -1.4 0  0.3999999999999999 -1.4 0  0.6000000000000001 -1.4 0  0.7999999999999998 -1.4 0  1 -1.4 0  1.2 -1.4 0  1.4 -1.4 0  1.6 -1.4 0  1.8 -1.4 0  2 -1.4 0  -2 -1.2 0  -1.8 -1.2 0  -1.6 -1.2 0  -1.4 -1.2 0  -1.2 -1.2 0  -1 -1.2 0  -0.8 -1.2 0  -0.6000000000000001 -1.2 0  -0.3999999999999999 -1.2 0  -0.2 -1.2 0  0 -1.2 0  0.2000000000000002 -1.2 0  0.3999999999999999 -1.2 0  0.6000000000000001 -1.2 0  0.7999999999999998 -1.2 0  1 -1.2 0  1.2 -1.2 0  1.4 -1.2 0  1.6 -1.2 0  1.8 -1.2 0  2 -1.2 0  -2 -1 0  -1.8 -1 0  -1.6 -1 0  -1.4 -1 0  -1.2 -1 0  -1 -1 0  -0.8 -1 0  -0.6000000000000001 -1 0  -0.3999999999999999 -1 0  -0.2 -1 0  0 -1 0  0.2000000000000002 -1 0  0.3999999999999999 -1 0  0.6000000000000001 -1 0  0.7999999999999998 -1 0  1 -1 0  1.2 -1 0  1.4 -1 0  1.6 -1 0  1.8 -1 0  2 -1 0  -2 -0.8 0  -1.8 -0.8 0  -1.6 -0.8 0  -1.4 -0.8 0  -1.2 -0.8 0  -1 -0.8 0  -0.8 -0.8 0  -0.6000000000000001 -0.8 0  -0.3999999999999999 -0.8 0  -0.2 -0.8 0  0 -0.8 0  0.2000000000000002 -0.8 0  0.3999999999999999 -0.8 0  0.6000000000000001 -0.8 0  0.7999999999999998 -0.8 0  1 -0.8 0  1.2 -0.8 0  1.4 -0.8 0  1.6 -0.8 0  1.8 -0.8 0  2 -0.8 0  -2 -0.6000000000000001 0  -1.8 -0.6000000000000001 0  -1.6 -0.6000000000000001 0  -1.4 -0.6000000000000001 0  -1.2 -0.6000000000000001 0  -1 -0.6000000000000001 0  -0.8 -0.6000000000000001 0  -0.6000000000000001 -0.6000000000000001 0  -0.3999999999999999 -0.6000000000000001 0  -0.2 -0.6000000000000001 0  0 -0.6000000000000001 0  0.2000000000000002 -0.6000000000000001 0  0.3999999999999999 -0.6000000000000001 0  0.6000000000000001 -0.6000000000000001 0  0.7999999999999998 -0.6000000000000001 0  1 -0.6000000000000001 0  1.2 -0.6000000000000001 0  1.4 -0.6000000000000001 0  1.6 -0.6000000000000001 0  1.8 -0.6000000000000001 0  2 -0.6000000000000001 0  -2 -0.3999999999999999 0  -1.8 -0.3999999999999999 0  -1.6 -0.3999999999999999 0  -1.4 -0.3999999999999999 0  -1.2 -0.3999999999999999 0  -1 -0.3999999999999999 0  -0.8 -0.3999999999999999 0  -0.6000000000000001 -0.3999999999999999 0  -0.3999999999999999 -0.3999999999999999 0  -0.2 -0.3999999999999999 0  0 -0.3999999999999999 0  0.2000000000000002 -0.3999999999999999 0  0.3999999999999999 -0.3999999999999999 0  0.6000000000000001 -0.3999999999999999 0  0.7999999999999998 -0.3999999999999999 0  1 -0.3999999999999999 0  1.2 -0.3999999999999999 0  1.4 -0.3999999999999999 0  1.6 -0.3999999999999999 0  1.8 -0.3999999999999999 0  2 -0.3999999999999999 0  -2 -0.2 0  -1.8 -0.2 0  -1.6 -0.2 0  -1.4 -0.2 0  -1.2 -0.2 0  -1 -0.2 0  -0.8 -0.2 0  -0.6000000000000001 -0.2 0  -0.3999999999999999 -0.2 0  -0.2 -0.2 0  0 -0.2 0  0.2000000000000002 -0.2 0  0.3999999999999999 -0.2 0  0.6000000000000001 -0.2 0  0.7999999999999998 -0.2 0  1 -0.2 0  1.2 -0.2 0  1.4 -0.2 0  1.6 -0.2 0  1.8 -0.2 0  2 -0.2 0  -2 0 0  -1.8 0 0  -1.6 0 0  -1.4 0 0  -1.2 0 0  -1 0 0  -0.8 0 0  -0.6000000000000001 0 0  -0.3999999999999999 0 0  -0.2 0 0  0 0 0  0.2000000000000002 0 0  0.3999999999999999 0 0  0.6000000000000001 0 0  0.7999999999999998 0 0  1 0 0  1.2 0 0  1.4 0 0  1.6 0 0  1.8 0 0  2 0 0  -2 0.2000000000000002 0  -1.8 0.2000000000000002 0  -1.6 0.2000000000000002 0  -1.4 0.2000000000000002 0  -1.2 0.2000000000000002 0  -1 0.2000000000000002 0  -0.8 0.2000000000000002 0  -0.6000000000000001 0.2000000000000002 0  -0.3999999999999999 0.2000000000000002 0  -0.2 0.2000000000000002 0  0 0.2000000000000002 0  0.2000000000000002 0.2000000000000002 0  0.3999999999999999 0.2000000000000002 0  0.6000000000000001 0.2000000000000002 0  0.7999999999999998 0.2000000000000002 0  1 0.2000000000000002 0  1.2 0.2000000000000002 0  1.4 0.2000000000000002 0  1.6 0.2000000000000002 0  1.8 0.2000000000000002 0  2 0.2000000000000002 0  -2 0.3999999999999999 0  -1.8 0.3999999999999999 0  -1.6 0.3999999999999999 0  -1.4 0.3999999999999999 0  -1.2 0.3999999999999999 0  -1 0.3999999999999999 0  -0.8 0.3999999999999999 0  -0.6000000000000001 0.3999999999999999 0  -0.3999999999999999 0.3999999999999999 0  -0.2 0.3999999999999999 0  0 0.3999999999999999 0  0.2000000000000002 0.3999999999999999 0  0.3999999999999999 0.3999999999999999 0  0.6000000000000001 0.3999999999999999 0  0.7999999999999998 0.3999999999999999 0  1 0.3999999999999999 0  1.2 0.3999999999999999 0  1.4 0.3999999999999999 0  1.6 0.3999999999999999 0  1.8 0.3999999999999999 0  2 0.3999999999999999 0  -2 0.6000000000000001 0  -1.8 0.6000000000000001 0  -1.6 0.6000000000000001 0  -1.4 0.6000000000000001 0  -1.2 0.6000000000000001 0  -1 0.6000000000000001 0  -0.8 0.6000000000000001 0  -0.6000000000000001 0.6000000000000001 0  -0.3999999999999999 0.6000000000000001 0  -0.2 0.6000000000000001 0  0 0.6000000000000001 0  0.2000000000000002 0.6000000000000001 0  0.3999999999999999 0.6000000000000001 0  0.6000000000000001 0.6000000000000001 0  0.7999999999999998 0.6000000000000001 0  1 0.6000000000000001 0  1.2 0.6000000000000001 0  1.4 0.6000000000000001 0  1.6 0.6000000000000001 0  1.8 0.6000000000000001 0  2 0.6000000000000001 0  -2 0.7999999999999998 0  -1.8 0.7999999999999998 0  -1.6 0.7999999999999998 0  -1.4 0.7999999999999998 0  -1.2 0.7999999999999998 0  -1 0.7999999999999998 0  -0.8 0.7999999999999998 0  -0.6000000000000001 0.7999999999999998 0  -0.3999999999999999 0.7999999999999998 0  -0.2 0.7999999999999998 0  0 0.7999999999999998 0  0.2000000000000002 0.7999999999999998 0  0.3999999999999999 0.7999999999999998 0  0.6000000000000001 0.7999999999999998 0  0.7999999999999998 0.7999999999999998 0  1 0.7999999999999998 0  1.2 0.7999999999999998 0  1.4 0.7999999999999998 0  1.6 0.7999999999999998 0  1.8 0.7999999999999998 0  2 0.7999999999999998 0  -2 1 0  -1.8 1 0  -1.6 1 0  -1.4 1 0  -1.2 1 0  -1 1 0  -0.8 1 0  -0.6000000000000001 1 0  -0.3999999999999999 1 0  -0.2 1 0  0 1 0  0.2000000000000002 1 0  0.3999999999999999 1 0  0.6000000000000001 1 0  0.7999999999999998 1 0  1 1 0  1.2 1 0  1.4 1 0  1.6 1 0  1.8 1 0  2 1 0  -2 1.2 0  -1.8 1.2 0  -1.6 1.2 0  -1.4 1.2 0  -1.2 1.2 0  -1 1.2 0  -0.8 1.2 0  -0.6000000000000001 1.2 0  -0.3999999999999999 1.2 0  -0.2 1.2 0  0 1.2 0  0.2000000000000002 1.2 0  0.3999999999999999 1.2 0  0.6000000000000001 1.2 0  0.7999999999999998 1.2 0  1 1.2 0  1.2 1.2 0  1.4 1.2 0  1.6 1.2 0  1.8 1.2 0  2 1.2 0  -2 1.4 0  -1.8 1.4 0  -1.6 1.4 0  -1.4 1.4 0  -1.2 1.4 0  -1 1.4 0  -0.8 1.4 0  -0.6000000000000001 1.4 0  -0.3999999999999999 1.4 0  -0.2 1.4 0  0 1.4 0  0.2000000000000002 1.4 0  0.3999999999999999 1.4 0  0.6000000000000001 1.4 0  0.7999999999999998 1.4 0  1 1.4 0  1.2 1.4 0  1.4 1.4 0  1.6 1.4 0  1.8 1.4 0  2 1.4 0  -2 1.6 0  -1.8 1.6 0  -1.6 1.6 0  -1.4 1.6 0  -1.2 1.6 0  -1 1.6 0  -0.8 1.6 0  -0.6000000000000001 1.6 0  -0.3999999999999999 1.6 0  -0.2 1.6 0  0 1.6 0  0.2000000000000002 1.6 0  0.3999999999999999 1.6 0  0.6000000000000001 1.6 0  0.7999999999999998 1.6 0  1 1.6 0  1.2 1.6 0  1.4 1.6 0  1.6 1.6 0  1.8 1.6 0  2 1.6 0  -2 1.8 0  -1.8 1.8 0  -1.6 1.8 0  -1.4 1.8 0  -1.2 1.8 0  -1 1.8 0  -0.8 1.8 0  -0.6000000000000001 1.8 0  -0.3999999999999999 1.8 0  -0.2 1.8 0  0 1.8 0  0.2000000000000002 1.8 0  0.3999999999999999 1.8 0  0.6000000000000001 1.8 0  0.7999999999999998 1.8 0  1 1.8 0  1.2 1.8 0  1.4 1.8 0  1.6 1.8 0  1.8 1.8 0  2 1.8 0  -2 2 0  -1.8 2 0  -1.6 2 0  -1.4 2 0  -1.2 2 0  -1 2 0  -0.8 2 0  -0.6000000000000001 2 0  -0.3999999999999999 2 0  -0.2 2 0  0 2 0  0.2000000000000002 2 0  0.3999999999999999 2 0  0.6000000000000001 2 0  0.7999999999999998 2 0  1 2 0  1.2 2 0  1.4 2 0  1.6 2 0  1.8 2 0  2 2 0  </DataArray>
</Points>
<Cells>
[...]
<PointData  Scalars="f_18-0"> 
<DataArray  type="Float64"  Name="f_18-0"  format="ascii">6.4015532651565832e-12  -1.2605827770489916e-11  -6.1446327092545272e-12  7.0589886495773179e-11  1.1796001360453099e-11  -3.4839040181342335e-10  -6.0061663139753304e-10  -3.5899481647252156e-10  8.8837095316126830e-12  7.6361020591379133e-11  -3.9033734623403987e-12  -1.3731195853064276e-11  3.8895152649953840e-12  1.1984176556225610e-12  -1.0842749330007579e-12  2.5135402624141381e-13  5.7371847128705877e-14  -7.4325583676942473e-14  1.3499885618670046e-14  -1.2869409923895610e-14  -3.4101383611370082e-15  -1.2381353323032546e-11  -3.0959958137906766e-13  3.7998728753629445e-11  -4.8556503112440220e-11  -1.6603964869546912e-10  2.6955042830270445e-10  1.0700339820501510e-09  1.0855169334773639e-09  2.8734063679643658e-10  -1.7267429274934990e-10  -5.8900370648016476e-11  3.9295489218624821e-11  1.9053251854974066e-12  -7.3075358392412150e-12  2.3096254566819128e-12  2.1833680169249706e-13  -4.5895089130364251e-13  1.9831893835137350e-13  -1.0776332799811014e-14  1.3873808139886542e-14  1.9689748817719261e-14  -1.0130123057676733e-11  3.9318039871145551e-11  -5.6873294551030315e-11  -1.0350367490429148e-10  4.5843844570902574e-10  2.3442560871269285e-10  -2.4191291416713730e-09  -4.4071610153883613e-09  -2.5037379295919712e-09  2.1695044250964145e-10  5.0541568654685857e-10  -9.1089614701492615e-11  -7.0055125761698215e-11  3.6476713455714675e-11  -1.9340636285787893e-12  -4.9487192015542646e-12  2.6209278787124118e-12  -5.9258195863739350e-13  -1.1065938025908497e-13  2.3951028182726735e-14  -1.1673792563818300e-13  7.1306218219163776e-11  -3.8389700502896587e-11  -1.1782532773753697e-10  4.8556190606557720e-10  -2.5554163422161516e-10  -2.4114239149357749e-09  2.8620276160377400e-09  1.4485938976446537e-08  1.4724467929240464e-08  3.1154049301900597e-09  -2.5334512422316157e-09  -3.9334893270957964e-10  5.2413291209096273e-10  -9.0386707615759468e-11  -5.1083583009458759e-11  3.6157836228391746e-11  -9.6800917572240644e-12  -2.6367779426109425e-13  1.5695545301925474e-12  -5.2450340078305123e-13  6.0509328464934848e-13  5.2712764374989759e-11  -1.9682096729686111e-10  4.4449007410698140e-10  -1.6714920224007155e-10  -2.2124894922822084e-09  5.3166540644377232e-09  5.8526178261931482e-09  -3.2914575196316761e-08  -6.4761600381833254e-08  -3.4276122434792694e-08  5.6793143368806757e-09  6.0770559563088032e-09  -2.1219448879510115e-09  -3.7799363284565314e-10  4.8084514287428017e-10  -1.5465459119189817e-10  5.3523920440125007e-12  1.9162161138575411e-11  -1.1497850255145390e-11  3.5718611137307675e-12  -2.5127445976232127e-12  -3.2941811851200489e-10  1.6773666976796205e-10  4.8307607321180192e-10  -2.6298389176982354e-09  5.0329818183832895e-09  2.8625134023508536e-09  -3.5735672099960705e-08  2.7766904898189405e-08  2.1128198216075464e-07  2.1526969828138785e-07  3.1630804742442561e-08  -3.8089672264792426e-08  9.9649168515266931e-10  5.9054005349949404e-09  -2.4300603236767500e-09  2.1908593422581649e-10  2.3757591335531557e-10  -1.6067524827897773e-10  6.1790405966148980e-11  -1.6842606472605273e-11  8.3767771417040959e-12  -7.9906928742917420e-10  1.1936978933267496e-09  -2.2096652537132965e-09  1.5256141148065621e-09  8.4600977789620085e-09  -3.6511080380684381e-08  4.6934186503018134e-08  1.2568213607625241e-07  -4.4076755327387292e-07  -9.7229155128378753e-07  -4.6321072150941112e-07  1.2484049105218351e-07  5.9315046416366894e-08  -3.7064814142362080e-08  5.5656729508045059e-09  2.7874477311685142e-09  -2.2356712549005819e-09  9.0109324811519622e-10  -2.6091423180759809e-10  6.0022192104691431e-11  -2.1206838238337279e-11  -7.6396904358713238e-10  1.7502136018153118e-09  -5.7420109810863428e-09  1.5629904626140976e-08  -2.8887197805982143e-08  1.0708517668148466e-08  1.4506913345760383e-07  -4.8297236198381996e-07  1.3067515463945919e-07  3.1214839823289057e-06  3.1896900821151037e-06  1.9012470161659810e-07  -5.2881572468633470e-07  1.2224183633190478e-07  2.8366474499221274e-08  -3.0958536980775655e-08  1.3114604707858386e-08  -3.8456578953936209e-09  8.5873718720289110e-10  -1.5546920640692057e-10  3.2506190574600635e-11  -2.7521290948208455e-10  1.0788470352910873e-09  -5.4688278462921618e-09  2.3556889290464235e-08  -8.2023377968659358e-08  2.1902265820747613e-07  -3.7140388041158358e-07  -3.7176558583654618e-08  2.4866545988024114e-06  -5.5941963016577107e-06  -1.5042434401666369e-05  -5.9721696302139897e-06  2.5089136851433970e-06  1.6754295488656000e-07  -4.2280057041765204e-07  1.9280740599537425e-07  -5.6888181428738797e-08  1.2452324729454163e-08  -2.0169311088617864e-09  2.2541028871795840e-10  1.7061725084692252e-11  6.6132987330655893e-11  9.5715564825002018e-11  -1.8110389230555966e-09  1.3980243830392308e-08  -7.7717951560970164e-08  3.4053796242779761e-07  -1.1830742672568849e-06  3.0738561143685476e-06  -4.6282072801091166e-06  -4.3082553501920045e-06  4.7170659142922803e-05  4.8328049405672501e-05  -3.3441112624063436e-06  -5.5667335160816781e-06  2.8814879648678134e-06  -8.5567058745881980e-07  1.8117337071015618e-07  -2.7269819577530615e-08  2.1920091408209963e-09  2.1888386480935542e-10  -2.7475811710873678e-10  6.1537668028148413e-11  -1.8727754516309703e-10  5.5425025875018742e-10  6.2607973296593003e-10  -2.3067118063424850e-08  1.9332564368023278e-07  -1.1127723423314343e-06  4.9491817102607302e-06  -1.7173329907459075e-05  4.3720685460871652e-05  -5.7322185399360202e-05  -2.4936056698357458e-04  -6.3710060454678317e-05  4.4444894587049115e-05  -1.3263525750639745e-05  2.6581659014087579e-06  -3.5876944262808929e-07  1.9026815658580696e-08  5.6456534211635360e-09  -2.1819477082653148e-09  7.4291031498514376e-10  -1.2466348779317555e-11  -2.4170068991767372e-11  3.7020538979028815e-10  -2.4192002956601094e-09  9.0063228468104901e-09  -8.1662820500505973e-10  -2.8612530944798737e-07  2.6627920612932975e-06  -1.5963879304661841e-05  7.1862978182817160e-05  -2.5107112199583955e-04  7.5656006723608983e-04  7.8260255868190486e-04  -2.1987486252462312e-04  3.9471175574515818e-05  -4.3703502319376681e-06  3.2489151423297005e-08  1.1535869333534789e-07  -3.0188235755224678e-08  4.5487120762066219e-09  -2.5661487111512026e-10  -9.7055957875981927e-12  3.5653200507573055e-11  -1.2263057120470572e-10  -2.2220016510807866e-11  3.9806530536737486e-09  -3.2341987668563144e-08  1.4410169873371047e-07  -1.6986978292621798e-07  -3.3937933415573018e-06  3.6855382336628779e-05  -2.2815946983140392e-04  2.2063653562695369e-03  5.8218860162606974e-02  1.8599559715974652e-03  -3.8716985153689278e-05  -4.8503469822884303e-06  2.1512981365645314e-06  -3.8700508280225600e-07  3.2816275765460405e-08  3.6302638428051742e-09  -3.9368134866370536e-09  4.1441478026079226e-12  -2.3750814812659384e-12  -4.2572908382783308e-11  4.1889162565517232e-10  -2.0945903247248429e-09  3.9875695482120185e-09  3.3793598974229419e-08  -4.0925464375354713e-07  2.3014824957618071e-06  -5.3259878220545468e-06  -4.0399128332342526e-05  1.9252615767779814e-03  5.8186452760170704e-02  2.0592708703196377e-03  -2.0654508798511822e-04  3.3753015398004256e-05  -3.1592913638334174e-06  -1.5176355341850892e-07  1.3443304028461602e-07  -3.2549416239229536e-08  7.5192354005960713e-09  5.3500743431012225e-13  -5.4721373255968757e-12  3.2203790394721741e-11  -1.0630327040262354e-10  -1.2505055303892226e-10  4.3277741890216018e-09  -3.1590923351344687e-08  1.2233482174450946e-07  2.3703177555285565e-08  -4.5338065242896142e-06  4.1125970557701512e-05  -2.2789376721174526e-04  7.7508022248798944e-04  7.1922949683104933e-04  -2.2643854349497803e-04  6.4778230315156021e-05  -1.4514134971190615e-05  2.4472294813993584e-06  -2.6710723014408208e-07  1.0476572624017223e-10  1.6665003147518403e-08  -8.8718371459205719e-13  2.2386109427853041e-12  -3.9134047429621335e-12  -3.2587244398304241e-11  3.8693821696615643e-10  -2.1823937693085597e-09  6.0385307928781193e-09  1.9064581064928587e-08  -3.6972868473654164e-07  2.7467332682358651e-06  -1.3670903863864843e-05  4.5361977707348020e-05  -6.2274292842110946e-05  -2.4206808067569476e-04  -5.5664055543120173e-05  4.0181273201359051e-05  -1.5638897096749688e-05  4.5172334130776565e-06  -1.0244959107073545e-06  1.9065512764423981e-07  -4.2615814165167953e-08  2.7246586752620233e-13  1.9223541025343282e-14  -3.7132583106759691e-12  3.0810734292015021e-11  -1.4421064367728086e-10  2.6889800257905667e-10  2.1973616166104348e-09  -2.8047755155376460e-08  1.8660505675034582e-07  -8.8004736129009979e-07  2.9501669997030288e-06  -5.6314262292505203e-06  -3.5480858607556554e-06  4.7075838564847063e-05  4.5763152533327829e-05  -3.8014355712882293e-06  -4.3252800862751043e-06  2.8245049102507544e-06  -1.0878535512147194e-06  3.3321492776524168e-07  -1.4248176559695172e-07  7.4878099148631303e-14  -4.3047260459867812e-13  2.4044892595620855e-12  -9.2799055489782248e-12  8.8386392138687928e-12  2.0237129583310242e-10  -2.0734596918255521e-09  1.2811866268044118e-08  -5.8429368750488090e-08  1.9754931950144661e-07  -4.3099274617665802e-07  1.6540094179614224e-07  2.5267653057188721e-06  -5.7867488279700045e-06  -1.4630352391713929e-05  -5.4816826662045779e-06  2.3249019037358300e-06  -2.5165862869294281e-08  -3.4564707040215741e-07  2.1525694731056614e-07  -1.5018137347987740e-07  -1.3314306294276052e-14  7.6260524954972244e-14  -2.6446238884107665e-13  -7.5816540193819036e-13  1.8097351460555650e-11  -1.5082055845873007e-10  8.7651426730381503e-10  -3.9161444728069650e-09  1.3397527167386772e-08  -3.1736890369993077e-08  2.9295993380773895e-08  1.2361721403703964e-07  -5.3057021930789184e-07  1.7093481568954658e-07  3.1137801530889703e-06  3.0536327957807254e-06  1.5091452951161895e-07  -4.5970268759379627e-07  1.3436770512635131e-07  1.2097098167324001e-08  -5.3311011270354719e-08  4.0434337303885919e-14  -9.3973101103972605e-14  2.6977613154473906e-13  2.4900501815328910e-14  -6.4333310691431834e-12  4.9868229170892771e-11  -2.5075862173282419e-10  9.2968217434952999e-10  -2.4450676213046961e-09  3.3297703417274154e-09  5.2797744715063461e-09  -3.9494585964387067e-08  6.4653390624718220e-08  1.3207581939489140e-07  -4.8089243984118590e-07  -1.0086590217410279e-06  -4.6447014199435729e-07  1.2227912421228782e-07  5.0788082832577361e-08  -3.8624851161119297e-08  1.5352744226963484e-08  -1.3173662374912623e-14  -1.4086772010386171e-14  2.0477206984055277e-13  -1.5661599559767386e-12  8.6029018611777590e-12  -3.7234775001688690e-11  1.2793767687083616e-10  -3.2861668257708688e-10  4.8593230602568021e-10  4.4376354968512990e-10  -4.9179167791025910e-09  1.1844837665496971e-08  2.2779376493632853e-09  -7.5829813570778228e-08  5.9245374014388151e-08  4.1798664831834089e-07  4.1191956424942506e-07  5.6736843562178421e-08  -6.7960904458225175e-08  4.8973103741253384e-09  1.4249992229546797e-08  </DataArray> 
</PointData> 
</Piece>
</UnstructuredGrid>
</VTKFile>