<?xml version="1.0"?>
<VTKFile type="UnstructuredGrid"  version="0.1"  >
<UnstructuredGrid>
<Piece  NumberOfPoints="441" NumberOfCells="800">
<Points>
<DataArray  type="Float64"  NumberOfComponents="3"  format="ascii">-2 -2 0  -1.8 -2 0  -1.6 -2 0  -1.4 -2 0  -1.2 -2 0  -1 -2 0  -0.8 -2 0  -0.6000000000000001 -2 0  -0.3999999999999999 -2 0  -0.2 -2 0  0 -2 0  0.2000000000000002 -2 0  0.3999999999999999 -2 0  0.6000000000000001 -2 0  0.7999999999999998 -2 0  1 -2 0  1.2 -2 0  1.4 -2 0  1.6 -2 0  1.8 -2 0  2 -2 0  -2 -1.8 0  -1.8 -1.8 0  -1.6 -1.8 0  -1.4 -1.8 0  -1.2 -1.8 0  -1 -1.8 0  -0.8 -1.8 0  -0.6000000000000001 -1.8 0  -0.3999999999999999 -1.8 0  -0.2 -1.8 0  0 -1.8 0  0.2000000000000002 -1.8 0  0.3999999999999999 -1.8 0  0.6000000000000001 -1.8 0  0.7999999999999998 -1.8 0  1 -1.8 0  1.2 -1.8 0  1.4 -1.8 0  1.6 -1.8 0  1.8 -1.8 0  2 -1.8 0  -2 -1.6 0  -1.8 -1.6 0  -1.6 -1.6 0  -1.4 -1.6 0  -1.2 -1.6 0  -1 -1.6 0  -0.8 -1.6 0  -0.6000000000000001 -1.6 0  -0.3999999999999999 -1.6 0  -0.2 -1.6 0  0 -1.6 0  0.2000000000000002 -1.6 0  0.3999999999999999 -1.6 0  0.6000000000000001 -1.6 0  0.7999999999999998 -1.6 0  1 -1.6 0  1.2 -1.6 0  1.4 -1.6 0  1.6 -1.6 0  1.8 -1.6 0  2 -1.6 0  -2 -1.4 0  -1.8 -1.4 0  -1.6 -1.4 0  -1.4 -1.4 0  -1.2 -1.4 0  -1 -1.4 0  -0.8 -1.4 0  -0.6000000000000001 -1.4 0  -0.3999999999999999 -1.4 0  -0.2 -1.4 0  0 -1.4 0  0.2000000000000002 -1.4 0  0.3999999999999999 -1.4 0  0.6000000000000001 -1.4 0  0.7999999999999998 -1.4 0  1 -1.4 0  1.2 -1.4 0  1.4 -1.4 0  1.6 -1.4 0  1.8 -1.4 0  2 -1.4 0  -2 -1.2 0  -1.8 -1.2 0  -1.6 -1.2 0  -1.4 -1.2 0  -1.2 -1.2 0  -1 -1.2 0  -0.8 -1.2 0  -0.6000000000000001 -1.2 0  -0.3999999999999999 -1.2 0  -0.2 -1.2 0  0 -1.2 0  0.2000000000000002 -1.2 0  0.3999999999999999 -1.2 0  0.6000000000000001 -1.2 0  0.7999999999999998 -1.2 0  1 -1.2 0  1.2 -1.2 0  1.4 -1.2 0  1.6 -1.2 0  1.8 -1.2 0  2 -1.2 0  -2 -1 0  -1.8 -1 0  -1.6 -1 0  -1.4 -1 0  -1.2 -1 0  -1 -1 0  -0.8 -1 0  -0.6000000000000001 -1 0  -0.3999999999999999 -1 0  -0.2 -1 0  0 -1 0  0.2000000000000002 -1 0  0.3999999999999999 -1 0  0.6000000000000001 -1 0  0.7999999999999998 -1 0  1 -1 0  1.2 -1 0  1.4 -1 0  1.6 -1 0  1.8 -1 0  2 -1 0  -2 -0.8 0  -1.8 -0.8 0  -1.6 -0.8 0  -1.4 -0.8 0  -1.2 -0.8 0  -1 -0.8 0  -0.8 -0.8 0  -0.6000000000000001 -0.8 0  -0.3999999999999999 -0.8 0  -0.2 -0.8 0  0 -0.8 0  0.2000000000000002 -0.8 0  0.3999999999999999 -0.8 0  0.6000000000000001 -0.8 0  0.7999999999999998 -0.8 0  1 -0.8 0  1.2 -0.8 0  1.4 -0.8 0  1.6 -0.8 0  1.8 -0.8 0  2 -0.8 0  -2 -0.6000000000000001 0  -1.8 -0.6000000000000001 0  -1.6 -0.6000000000000001 0  -1.4 -0.6000000000000001 0  -1.2 -0.6000000000000001 0  -1 -0.6000000000000001 0  -0.8 -0.6000000000000001 0  -0.6000000000000001 -0.6000000000000001 0  -0.3999999999999999 -0.6000000000000001 0  -0.2 -0.6000000000000001 0  0 -0.6000000000000001 0  0.2000000000000002 -0.6000000000000001 0  0.3999999999999999 -0.6000000000000001 0  0.6000000000000001 -0.6000000000000001 0  0.7999999999999998 -0.6000000000000001 0  1 -0.6000000000000001 0  1.2 -0.6000000000000001 0  1.4 -0.6000000000000001 0  1.6 -0.6000000000000001 0  1.8 -0.6000000000000001 0  2 -0.6000000000000001 0  -2 -0.3999999999999999 0  -1.8 -0.3999999999999999 0  -1.6 -0.3999999999999999 0  -1.4 -0.3999999999999999 0  -1.2 -0.3999999999999999 0  -1 -0.3999999999999999 0  -0.8 -0.3999999999999999 0  -0.6000000000000001 -0.3999999999999999 0  -0.3999999999999999 -0.3999999999999999 0  -0.2 -0.3999999999999999 0  0 -0.3999999999999999 0  0.2000000000000002 -0.3999999999999999 0  0.3999999999999999 -0.3999999999999999 0  0.6000000000000001 -0.3999999999999999 0  0.7999999999999998 -0.3999999999999999 0  1 -0.3999999999999999 0  1.2 -0.3999999999999999 0  1.4 -0.3999999999999999 0  1.6 -0.3999999999999999 0  1.8 -0.3999999999999999 0  2 -0.3999999999999999 0  -2 -0.2 0  -1.8 -0.2 0  -1.6 -0.2 0  -1.4 -0.2 0  -1.2 -0.2 0  -1 -0.2 0  -0.8 -0.2 0  -0.6000000000000001 -0.2 0  -0.3999999999999999 -0.2 0  -0.2 -0.2 0  0 -0.2 0  0.2000000000000002 -0.2 0  0.3999999999999999 -0.2 0  0.6000000000000001 -0.2 0  0.7999999999999998 -0.2 0  1 -0.2 0  1.2 -0.2 0  1.4 -0.2 0  1.6 -0.2 0  1.8 -0.2 0  2 -0.2 0  -2 0 0  -1.8 0 0  -1.6 0 0  -1.4 0 0  -1.2 0 0  -1 0 0  -0.8 0 0  -0.6000000000000001 0 0  -0.3999999999999999 0 0  -0.2 0 0  0 0 0  0.2000000000000002 0 0  0.3999999999999999 0 0  0.6000000000000001 0 0  0.7999999999999998 0 0  1 0 0  1.2 0 0  1.4 0 0  1.6 0 0  1.8 0 0  2 0 0  -2 0.2000000000000002 0  -1.8 0.2000000000000002 0  -1.6 0.2000000000000002 0  -1.4 0.2000000000000002 0  -1.2 0.2000000000000002 0  -1 0.2000000000000002 0  -0.8 0.2000000000000002 0  -0.6000000000000001 0.2000000000000002 0  -0.3999999999999999 0.2000000000000002 0  -0.2 0.2000000000000002 0  0 0.2000000000000002 0  0.2000000000000002 0.2000000000000002 0  0.3999999999999999 0.2000000000000002 0  0.6000000000000001 0.2000000000000002 0  0.7999999999999998 0.2000000000000002 0  1 0.2000000000000002 0  1.2 0.2000000000000002 0  1.4 0.2000000000000002 0  1.6 0.2000000000000002 0  1.8 0.2000000000000002 0  2 0.2000000000000002 0  -2 0.3999999999999999 0  -1.8 0.3999999999999999 0  -1.6 0.3999999999999999 0  -1.4 0.3999999999999999 0  -1.2 0.3999999999999999 0  -1 0.3999999999999999 0  -0.8 0.3999999999999999 0  -0.6000000000000001 0.3999999999999999 0  -0.3999999999999999 0.3999999999999999 0  -0.2 0.3999999999999999 0  0 0.3999999999999999 0  0.2000000000000002 0.3999999999999999 0  0.3999999999999999 0.3999999999999999 0  0.6000000000000001 0.3999999999999999 0  0.7999999999999998 0.3999999999999999 0  1 0.3999999999999999 0  1.2 0.3999999999999999 0  1.4 0.3999999999999999 0  1.6 0.3999999999999999 0  1.8 0.3999999999999999 0  2 0.3999999999999999 0  -2 0.6000000000000001 0  -1.8 0.6000000000000001 0  -1.6 0.6000000000000001 0  -1.4 0.6000000000000001 0  -1.2 0.6000000000000001 0  -1 0.6000000000000001 0  -0.8 0.6000000000000001 0  -0.6000000000000001 0.6000000000000001 0  -0.3999999999999999 0.6000000000000001 0  -0.2 0.6000000000000001 0  0 0.6000000000000001 0  0.2000000000000002 0.6000000000000001 0  0.3999999999999999 0.6000000000000001 0  0.6000000000000001 0.6000000000000001 0  0.7999999999999998 0.6000000000000001 0  1 0.6000000000000001 0  1.2 0.6000000000000001 0  1.4 0.6000000000000001 0  1.6 0.6000000000000001 0  1.8 0.6000000000000001 0  2 0.6000000000000001 0  -2 0.7999999999999998 0  -1.8 0.7999999999999998 0  -1.6 0.7999999999999998 0  -1.4 0.7999999999999998 0  -1.2 0.7999999999999998 0  -1 0.7999999999999998 0  -0.8 0.7999999999999998 0  -0.6000000000000001 0.7999999999999998 0  -0.3999999999999999 0.7999999999999998 0  -0.2 0.7999999999999998 0  0 0.7999999999999998 0  0.2000000000000002 0.7999999999999998 0  0.3999999999999999 0.7999999999999998 0  0.6000000000000001 0.7999999999999998 0  0.7999999999999998 0.7999999999999998 0  1 0.7999999999999998 0  1.2 0.7999999999999998 0  1.4 0.7999999999999998 0  1.6 0.7999999999999998 0  1.8 0.7999999999999998 0  2 0.7999999999999998 0  -2 1 0  -1.8 1 0  -1.6 1 0  -1.4 1 0  -1.2 1 0  -1 1 0  -0.8 1 0  -0.6000000000000001 1 0  -0.3999999999999999 1 0  -0.2 1 0  0 1 0  0.2000000000000002 1 0  0.3999999999999999 1 0  0.6000000000000001 1 0  0.7999999999999998 1 0  1 1 0  1.2 1 0  1.4 1 0  1.6 1 0  1.8 1 0  2 1 0  -2 1.2 0  -1.8 1.2 0  -1.6 1.2 0  -1.4 1.2 0  -1.2 1.2 0  -1 1.2 0  -0.8 1.2 0  -0.6000000000000001 1.2 0  -0.3999999999999999 1.2 0  -0.2 1.2 0  0 1.2 0  0.2000000000000002 1.2 0  0.3999999999999999 1.2 0  0.6000000000000001 1.2 0  0.7999999999999998 1.2 0  1 1.2 0  1.2 1.2 0  1.4 1.2 0  1.6 1.2 0  1.8 1.2 0  2 1.2 0  -2 1.4 0  -1.8 1.4 0  -1.6 1.4 0  -1.4 1.4 0  -1.2 1.4 0  -1 1.4 0  -0.8 1.4 0  -0.6000000000000001 1.4 0  -0.3999999999999999 1.4 0  -0.2 1.4 0  0 1.4 0  0.2000000000000002 1.4 0  0.3999999999999999 1.4 0  0.6000000000000001 1.4 0  0.7999999999999998 1.4 0  1 1.4 0  1.2 1.4 0  1.4 1.4 0  1.6 1.4 0  1.8 1.4 0  2 1.4 0  -2 1.6 0  -1.8 1.6 0  -1.6 1.6 0  -1.4 1.6 0  -1.2 1.6 0  -1 1.6 0  -0.8 1.6 0  -0.6000000000000001 1.6 0  -0.3999999999999999 1.6 0  -0.2 1.6 0  0 1.6 0  0.2000000000000002 1.6 0  0.3999999999999999 1.6 0  0.6000000000000001 1.6 0  0.7999999999999998 1.6 0  1 1.6 0  1.2 1.6 0  1.4 1.6 0  1.6 1.6 0  1.8 1.6 0  2 1.6 0  -2 1.8 0  -1.8 1.8 0  -1.6 1.8 0  -1.4 1.8 0  -1.2 1.8 0  -1 1.8 0  -0.8 1.8 0  -0.6000000000000001 1.8 0  -0.3999999999999999 1.8 0  -0.2 1.8 0  0 1.8 0  0.2000000000000002 1.8 0  0.3999999999999999 1.8 0  0.6000000000000001 1.8 0  0.7999999999999998 1.8 0  1 1.8 0  1.2 1.8 0  1.4 1.8 0  1.6 1.8 0  1.8 1.8 0  2 1.8 0  -2 2 0  -1.8 2 0  -1.6 2 0  -1.4 2 0  -1.2 2 0  -1 2 0  -0.8 2 0  -0.6000000000000001 2 0  -0.3999999999999999 2 0  -0.2 2 0  0 2 0  0.2000000000000002 2 0  0.3999999999999999 2 0  0.6000000000000001 2 0  0.7999999999999998 2 0  1 2 0  1.2 2 0  1.4 2 0  1.6 2 0  1.8 2 0  2 2 0  </DataArray>
</Points>
<Cells>
[...]
<PointData  Scalars="f_18-0"> 
<DataArray  type="Float64"  Name="f_18-0"  format="ascii">2.2147379485367936e-11  -4.7477398935836936e-11  -1.6722780961728668e-11  2.6332105833272224e-10  1.8067062209935492e-11  -1.3285918319104896e-09  -2.2358221853040285e-09  -1.3180449389177651e-09  3.6865034301710911e-11  2.7842786273557052e-10  -1.5024279134839091e-11  -4.9592977793606489e-11  1.4169960958311924e-11  4.2513111168926710e-12  -3.8932957465786048e-12  9.1103647146580632e-13  2.0004748546318543e-13  -2.6430637264635192e-13  4.8653309876321160e-14  -4.5873565440232354e-14  -1.1750172020009974e-14  -4.6338282970367440e-11  2.6124999721776133e-12  1.3710819193617981e-10  -1.9485926655672092e-10  -5.9578190670948898e-10  1.0742060872092464e-09  4.0204681437095397e-09  4.0103763117506904e-09  1.0432835968775748e-09  -6.3406627366851230e-10  -2.1214763628393930e-10  1.4280243676551696e-10  6.4057068427073225e-12  -2.6245131464312563e-11  8.3526116427820196e-12  7.4626141858764672e-13  -1.6327713358487697e-12  7.0924904866992315e-13  -4.0668632452323546e-14  4.9796174248011691e-14  6.9374322208716922e-14  -3.0645361441747324e-11  1.4065205816883101e-10  -2.2176535654288038e-10  -3.4444501537189457e-10  1.7256774015250367e-09  6.8832101321455891e-10  -9.2477290798518498e-09  -1.6395432717777484e-08  -9.1769485076020696e-09  8.2203314039915986e-10  1.8359731892730769e-09  -3.3520852767066445e-10  -2.5125674830963116e-10  1.3168694622239164e-10  -7.3935672352321418e-12  -1.7581843199200210e-11  9.3665808574446057e-12  -2.1363965101840123e-12  -3.8145806014088247e-13  8.2082603707143543e-14  -4.1234619337967661e-13  2.5939606025339709e-10  -1.5524216495350405e-10  -3.9254179991930706e-10  1.7872091105036662e-09  -1.1666616722955583e-09  -8.7407044404580675e-09  1.1654251609045207e-08  5.4444853729467360e-08  5.4322451034401055e-08  1.1259627491632491e-08  -9.2600664717225044e-09  -1.3965233143707720e-09  1.8924169129367464e-09  -3.3054012290140434e-10  -1.8110147310546255e-10  1.2925002262632345e-10  -3.4829113937827861e-11  -7.6642282431815134e-13  5.5233495834399092e-12  -1.8488243273033933e-12  2.1409800509474660e-12  1.6166840053636829e-10  -6.8846251984020026e-10  1.6430533339454060e-09  -8.3861634135515136e-10  -7.7593052966871961e-09  2.0331460049445257e-08  1.9211728392567616e-08  -1.2628186876152806e-07  -2.4072330035099511e-07  -1.2534701927320794e-07  2.1080678252545552e-08  2.1959176935926800e-08  -7.7129947463605295e-09  -1.3281177357235176e-09  1.7196285174354130e-09  -5.5600373560653632e-10  2.1398387766105245e-11  6.7310496781460557e-11  -4.0636033458742153e-11  1.2628468628352627e-11  -8.9002368531273347e-12  -1.2016718216160988e-09  6.7458216407229170e-10  1.5473606419396400e-09  -9.3308736632922031e-09  1.9084060910353818e-08  7.3589568162368004e-09  -1.3089329522970341e-07  1.1865726801019030e-07  7.9445094026569845e-07  7.9276408535272549e-07  1.1338693210191334e-07  -1.3848329719323217e-07  4.0157264672909574e-09  2.1135800964397810e-08  -8.7354097015245617e-09  8.1323189175352150e-10  8.3365835908358638e-10  -5.6777404874783316e-10  2.1873676204094078e-10  -5.9612412726757420e-11  2.9701951799941807e-11  -2.7942407171755479e-09  4.2467337077651119e-09  -8.1131080260276310e-09  6.5304584270065678e-09  2.8019461575563496e-08  -1.3195439234585939e-07  1.8703563770880677e-07  4.3277317902062940e-07  -1.7011993766776500e-06  -3.6099355633917077e-06  -1.6884303740089727e-06  4.5809249239615491e-07  2.1237735017920279e-07  -1.3336917299227397e-07  2.0311296739225370e-08  9.7615576892613920e-09  -7.9028169970789367e-09  3.1899219949382212e-09  -9.2432584483959412e-10  2.1259587094963181e-10  -7.5346369298093502e-11  -2.6083385720766454e-09  6.0410620575541344e-09  -2.0087205653839868e-08  5.5766918431417662e-08  -1.0707211649848564e-07  5.4623312680198730e-08  4.9561306866297463e-07  -1.7951072394291256e-06  7.2482821970457282e-07  1.1746272638586170e-05  1.1715858548642084e-05  6.6068950952847110e-07  -1.9081897411255461e-06  4.4356654908857680e-07  9.8835554674159593e-08  -1.0949503246818037e-07  4.6440443477930489e-08  -1.3622375719215316e-08  3.0440134638574036e-09  -5.5146550122980341e-10  1.1641696205879438e-10  -9.1368809037056176e-10  3.6380008404253773e-09  -1.8641662215131314e-08  8.1224288044689047e-08  -2.8708599906711376e-07  7.8458119479583949e-07  -1.3969204728190653e-06  1.0861237150952281e-07  8.8218930836719544e-06  -2.1854819934544808e-05  -5.5759406534521398e-05  -2.1652010475032495e-05  9.1091310378061606e-06  5.6597234354143448e-07  -1.4968034024917342e-06  6.8292798481422898e-07  -2.0145868019347144e-07  4.4118016168142165e-08  -7.1611170046555996e-09  8.0555588838560447e-10  5.4570424897955302e-11  2.3431332910079764e-10  2.9011441369919186e-10  -5.9957395895986936e-09  4.7030744939200294e-08  -2.6433309106459270e-07  1.1723643986012988e-06  -4.1434185862126318e-06  1.1081366162794898e-05  -1.7859555546229719e-05  -1.2256186790393007e-05  1.7778365813356581e-04  1.7672477388540006e-04  -1.2558257130055938e-05  -1.9747708175748002e-05  1.0207482304474452e-05  -3.0258724998507476e-06  6.4068469044104467e-07  -9.6689206286964789e-08  7.8814822537318620e-09  7.3289155834875751e-10  -9.5201415960222459e-10  2.0811267559579443e-10  -6.4027113119269681e-10  1.9366616742033530e-09  1.7210692255664995e-09  -7.6162669542356965e-08  6.4864566911860503e-07  -3.7726166630484360e-06  1.6991839077048382e-05  -6.0196307343462086e-05  1.5951729553319969e-04  -2.3322515302141630e-04  -9.2395822349220337e-04  -2.2705207946578161e-04  1.5775129257149831e-04  -4.6778963998569824e-05  9.3526992316752510e-06  -1.2654903415305211e-06  6.8871465568843439e-08  1.9305138666162261e-08  -7.5520071545848671e-09  2.5804383694479676e-09  -4.3293548487758816e-11  -7.9585319096951150e-11  1.2520533716739143e-09  -8.2472945929114201e-09  3.1111485506884241e-08  -7.1932473613804267e-09  -9.4396551532229131e-07  8.9106495554070046e-06  -5.3838055309056206e-05  2.4507302218355610e-04  -8.8297441447991384e-04  2.8431903291977791e-03  2.7207904504536430e-03  -7.7665399911400277e-04  1.3781659666929291e-04  -1.5242844107178241e-05  1.3581983109017645e-07  3.9506298467531493e-07  -1.0398130165906768e-07  1.5680664235858738e-08  -8.8999171758231398e-10  -3.3121361952384559e-11  1.2197112172626741e-10  -4.2105150902467513e-10  -6.0884459035528825e-11  1.3523974484204896e-08  -1.1031251011672511e-07  4.9384077559499103e-07  -6.0936940103228626e-07  -1.1293407012220297e-05  1.2342354953620718e-04  -7.6290957784050525e-04  5.0822366809820706e-03  7.3117075842070903e-02  4.0791039569502896e-03  -1.2990224086674223e-04  -1.6549039240383194e-05  7.2915444448596769e-06  -1.3115348714539330e-06  1.1061563162642361e-07  1.2693594973398718e-08  -1.3505459380540310e-08  1.4206367668227891e-11  -8.0619102518318513e-12  -1.4672217743188022e-10  1.4395016332113092e-09  -7.1818182858505183e-09  1.3545932522962773e-08  1.1705463111150741e-07  -1.4092927971569603e-06  7.8983923479587548e-06  -1.8033954321287676e-05  -1.4155006251516158e-04  4.3651063528205528e-03  7.3019113622520435e-02  4.5465051874257843e-03  -6.7257790904051435e-04  1.0971312604468872e-04  -1.0101099653162809e-05  -5.7383161216530687e-07  4.6002482733001277e-07  -1.1023640540606170e-07  2.5152160247647420e-08  1.8901018664681959e-12  -1.8942022806005890e-11  1.1097956811773099e-10  -3.6299082913331270e-10  -4.6366159475641615e-10  1.5106548413716149e-08  -1.0946677653958092e-07  4.1934353744140228e-07  1.3666369983791411e-07  -1.6179330181973416e-05  1.4591324771084791e-04  -8.1204442878077103e-04  2.6858473706553960e-03  2.6283085821999070e-03  -7.7890072015590682e-04  2.1589136723391237e-04  -4.7835776101427020e-05  8.0066203735671883e-06  -8.5774802991776932e-07  -6.8493014830863055e-09  5.7832854954836199e-08  -3.0788226696161487e-12  7.7077954549382753e-12  -1.3068136161116606e-11  -1.1610100835182300e-10  1.3539701527066784e-09  -7.5731494562603344e-09  2.0498744851228634e-08  7.1260291921716571e-08  -1.3223066784139470e-06  9.7738129715914298e-06  -4.8642524717903777e-05  1.6177113268473934e-04  -2.2179959141047266e-04  -8.8241393299432792e-04  -2.1700004993850035e-04  1.4330545696814362e-04  -5.3796107650084239e-05  1.5262960492791775e-05  -3.4257065773679855e-06  6.3082354783106800e-07  -1.3787507859998695e-07  9.3665919808681315e-13  1.1542580102925620e-13  -1.3163898850915118e-11  1.0792878522293046e-10  -5.0020013323027962e-10  8.9215965390287599e-10  8.0517326822710734e-09  -1.0037221002794787e-07  6.6473194373817747e-07  -3.1319542642040523e-06  1.0504879325511254e-05  -2.0052707492414856e-05  -1.3101225686339875e-05  1.7039074672334955e-04  1.6907788953457849e-04  -1.1092729627334490e-05  -1.6255151191535175e-05  1.0023144278860530e-05  -3.7645888509120748e-06  1.1351698534763332e-06  -4.7922011926264896e-07  2.7187403147937398e-13  -1.5219571365508683e-12  8.4276158463530338e-12  -3.2126746365702486e-11  2.7077701795530358e-11  7.3620400127771356e-10  -7.4215439356714728e-09  4.5664593102655686e-08  -2.0796383676783366e-07  7.0289720613328678e-07  -1.5325678253183751e-06  5.6961416923739598e-07  9.1279240205511167e-06  -2.0846296589176412e-05  -5.3542918572010932e-05  -2.0870991533525931e-05  8.1986556354080743e-06  9.4839936229514708e-08  -1.2755532558661328e-06  7.6120984811429911e-07  -5.1994180459219484e-07  -4.5744888672018576e-14  2.6086407354368885e-13  -8.8056518163429133e-13  -2.9886613834883811e-12  6.5481304704778386e-11  -5.3975232724854051e-10  3.1249503406494277e-09  -1.3939630095367020e-08  4.7653486797732400e-08  -1.1277256413522516e-07  1.0310718242380049e-07  4.4651979255046447e-07  -1.9087608648206231e-06  5.9396725594518698e-07  1.1331238926812358e-05  1.1315380794376248e-05  7.3250717260478359e-07  -1.6856558076935604e-06  4.5872397572580415e-07  5.6219391674359475e-08  -1.9427197507513312e-07  1.4321557033093454e-13  -3.3116933347688084e-13  9.4234454773087758e-13  1.6327650632653795e-13  -2.3132553730942264e-11  1.7802795596284063e-10  -8.9317377290865321e-10  3.3078914425441884e-09  -8.6902616805901931e-09  1.1776121831385351e-08  1.9176249500253019e-08  -1.4189921236580687e-07  2.3141440710392311e-07  4.8112531882705989e-07  -1.7405844694723257e-06  -3.7014066188889377e-06  -1.7548863400654565e-06  4.2116128460227361e-07  1.9625589572977320e-07  -1.3796606463447911e-07  5.0777247173150404e-08  -4.5068877303275913e-14  -5.3076224855058911e-14  7.3943566805121661e-13  -5.6059453427149397e-12  3.0685457318410253e-11  -1.3257087668742512e-10  4.5496077230661368e-10  -1.1669442594098605e-09  1.7173851012423023e-09  1.6271691558866399e-09  -1.7652108224088647e-08  4.2382055503718029e-08  8.8018017758592629e-09  -2.7422268071433741e-07  2.1146152668935312e-07  1.5244283655596813e-06  1.5261879862302735e-06  2.3130267940097925e-07  -2.4648168003891701e-07  1.2803287563957083e-08  5.3086060617444768e-08  </DataArray> 
</PointData> 
</Piece>
</UnstructuredGrid>
</VTKFile>