<?xml version="1.0"?>
<VTKFile type="UnstructuredGrid"  version="0.1"  >
<UnstructuredGrid>
<Piece  NumberOfPoints="961" NumberOfCells="1800">
<Points>
<DataArray  type="Float64"  NumberOfComponents="3"  format="ascii">0 0 0  0.03333333333333333 0 0  0.06666666666666667 0 0  0.1 0 0  0.1333333333333333 0 0  0.1666666666666667 0 0  0.2 0 0  0.2333333333333333 0 0  0.2666666666666667 0 0  0.3 0 0  0.3333333333333333 0 0  0.3666666666666666 0 0  0.4 0 0  0.4333333333333333 0 0  0.4666666666666667 0 0  0.5 0 0  0.5333333333333333 0 0  0.5666666666666667 0 0  0.6 0 0  0.6333333333333333 0 0  0.6666666666666666 0 0  0.7 0 0  0.7333333333333333 0 0  0.7666666666666667 0 0  0.8 0 0  0.8333333333333334 0 0  0.8666666666666667 0 0  0.9 0 0  0.9333333333333333 0 0  0.9666666666666667 0 0  1 0 0  0 0.03333333333333333 0  0.03333333333333333 0.03333333333333333 0  0.06666666666666667 0.03333333333333333 0  0.1 0.03333333333333333 0  0.1333333333333333 0.03333333333333333 0  0.1666666666666667 0.03333333333333333 0  0.2 0.03333333333333333 0  0.2333333333333333 0.03333333333333333 0  0.2666666666666667 0.03333333333333333 0  0.3 0.03333333333333333 0  0.3333333333333333 0.03333333333333333 0  0.3666666666666666 0.03333333333333333 0  0.4 0.03333333333333333 0  0.4333333333333333 0.03333333333333333 0  0.4666666666666667 0.03333333333333333 0  0.5 0.03333333333333333 0  0.5333333333333333 0.03333333333333333 0  0.5666666666666667 0.03333333333333333 0  0.6 0.03333333333333333 0  0.6333333333333333 0.03333333333333333 0  0.6666666666666666 0.03333333333333333 0  0.7 0.03333333333333333 0  0.7333333333333333 0.03333333333333333 0  0.7666666666666667 0.03333333333333333 0  0.8 0.03333333333333333 0  0.8333333333333334 0.03333333333333333 0  0.8666666666666667 0.03333333333333333 0  0.9 0.03333333333333333 0  0.9333333333333333 0.03333333333333333 0  0.9666666666666667 0.03333333333333333 0  1 0.03333333333333333 0  0 0.06666666666666667 0  0.03333333333333333 0.06666666666666667 0  0.06666666666666667 0.06666666666666667 0  0.1 0.06666666666666667 0  0.1333333333333333 0.06666666666666667 0  0.1666666666666667 0.06666666666666667 0  0.2 0.06666666666666667 0  0.2333333333333333 0.06666666666666667 0  0.2666666666666667 0.06666666666666667 0  0.3 0.06666666666666667 0  0.3333333333333333 0.06666666666666667 0  0.3666666666666666 0.06666666666666667 0  0.4 0.06666666666666667 0  0.4333333333333333 0.06666666666666667 0  0.4666666666666667 0.06666666666666667 0  0.5 0.06666666666666667 0  0.5333333333333333 0.06666666666666667 0  0.5666666666666667 0.06666666666666667 0  0.6 0.06666666666666667 0  0.6333333333333333 0.06666666666666667 0  0.6666666666666666 0.06666666666666667 0  0.7 0.06666666666666667 0  0.7333333333333333 0.06666666666666667 0  0.7666666666666667 0.06666666666666667 0  0.8 0.06666666666666667 0  0.8333333333333334 0.06666666666666667 0  0.8666666666666667 0.06666666666666667 0  0.9 0.06666666666666667 0  0.9333333333333333 0.06666666666666667 0  0.9666666666666667 0.06666666666666667 0  1 0.06666666666666667 0  0 0.1 0  0.03333333333333333 0.1 0  0.06666666666666667 0.1 0  0.1 0.1 0  0.1333333333333333 0.1 0  0.1666666666666667 0.1 0  0.2 0.1 0  0.2333333333333333 0.1 0  0.2666666666666667 0.1 0  0.3 0.1 0  0.3333333333333333 0.1 0  0.3666666666666666 0.1 0  0.4 0.1 0  0.4333333333333333 0.1 0  0.4666666666666667 0.1 0  0.5 0.1 0  0.5333333333333333 0.1 0  0.5666666666666667 0.1 0  0.6 0.1 0  0.6333333333333333 0.1 0  0.6666666666666666 0.1 0  0.7 0.1 0  0.7333333333333333 0.1 0  0.7666666666666667 0.1 0  0.8 0.1 0  0.8333333333333334 0.1 0  0.8666666666666667 0.1 0  0.9 0.1 0  0.9333333333333333 0.1 0  0.9666666666666667 0.1 0  1 0.1 0  0 0.1333333333333333 0  0.03333333333333333 0.1333333333333333 0  0.06666666666666667 0.1333333333333333 0  0.1 0.1333333333333333 0  0.1333333333333333 0.1333333333333333 0  0.1666666666666667 0.1333333333333333 0  0.2 0.1333333333333333 0  0.2333333333333333 0.1333333333333333 0  0.2666666666666667 0.1333333333333333 0  0.3 0.1333333333333333 0  0.3333333333333333 0.1333333333333333 0  0.3666666666666666 0.1333333333333333 0  0.4 0.1333333333333333 0  0.4333333333333333 0.1333333333333333 0  0.4666666666666667 0.1333333333333333 0  0.5 0.1333333333333333 0  0.5333333333333333 0.1333333333333333 0  0.5666666666666667 0.1333333333333333 0  0.6 0.1333333333333333 0  0.6333333333333333 0.1333333333333333 0  0.6666666666666666 0.1333333333333333 0  0.7 0.1333333333333333 0  0.7333333333333333 0.1333333333333333 0  0.7666666666666667 0.1333333333333333 0  0.8 0.1333333333333333 0  0.8333333333333334 0.1333333333333333 0  0.8666666666666667 0.1333333333333333 0  0.9 0.1333333333333333 0  0.9333333333333333 0.1333333333333333 0  0.9666666666666667 0.1333333333333333 0  1 0.1333333333333333 0  0 0.1666666666666667 0  0.03333333333333333 0.1666666666666667 0  0.06666666666666667 0.1666666666666667 0  0.1 0.1666666666666667 0  0.1333333333333333 0.1666666666666667 0  0.1666666666666667 0.1666666666666667 0  0.2 0.1666666666666667 0  0.2333333333333333 0.1666666666666667 0  0.2666666666666667 0.1666666666666667 0  0.3 0.1666666666666667 0  0.3333333333333333 0.1666666666666667 0  0.3666666666666666 0.1666666666666667 0  0.4 0.1666666666666667 0  0.4333333333333333 0.1666666666666667 0  0.4666666666666667 0.1666666666666667 0  0.5 0.1666666666666667 0  0.5333333333333333 0.1666666666666667 0  0.5666666666666667 0.1666666666666667 0  0.6 0.1666666666666667 0  0.6333333333333333 0.1666666666666667 0  0.6666666666666666 0.1666666666666667 0  0.7 0.1666666666666667 0  0.7333333333333333 0.1666666666666667 0  0.7666666666666667 0.1666666666666667 0  0.8 0.1666666666666667 0  0.8333333333333334 0.1666666666666667 0  0.8666666666666667 0.1666666666666667 0  0.9 0.1666666666666667 0  0.9333333333333333 0.1666666666666667 0  0.9666666666666667 0.1666666666666667 0  1 0.1666666666666667 0  0 0.2 0  0.03333333333333333 0.2 0  0.06666666666666667 0.2 0  0.1 0.2 0  0.1333333333333333 0.2 0  0.1666666666666667 0.2 0  0.2 0.2 0  0.2333333333333333 0.2 0  0.2666666666666667 0.2 0  0.3 0.2 0  0.3333333333333333 0.2 0  0.3666666666666666 0.2 0  0.4 0.2 0  0.4333333333333333 0.2 0  0.4666666666666667 0.2 0  0.5 0.2 0  0.5333333333333333 0.2 0  0.5666666666666667 0.2 0  0.6 0.2 0  0.6333333333333333 0.2 0  0.6666666666666666 0.2 0  0.7 0.2 0  0.7333333333333333 0.2 0  0.7666666666666667 0.2 0  0.8 0.2 0  0.8333333333333334 0.2 0  0.8666666666666667 0.2 0  0.9 0.2 0  0.9333333333333333 0.2 0  0.9666666666666667 0.2 0  1 0.2 0  0 0.2333333333333333 0  0.03333333333333333 0.2333333333333333 0  0.06666666666666667 0.2333333333333333 0  0.1 0.2333333333333333 0  0.1333333333333333 0.2333333333333333 0  0.1666666666666667 0.2333333333333333 0  0.2 0.2333333333333333 0  0.2333333333333333 0.2333333333333333 0  0.2666666666666667 0.2333333333333333 0  0.3 0.2333333333333333 0  0.3333333333333333 0.2333333333333333 0  0.3666666666666666 0.2333333333333333 0  0.4 0.2333333333333333 0  0.4333333333333333 0.2333333333333333 0  0.4666666666666667 0.2333333333333333 0  0.5 0.2333333333333333 0  0.5333333333333333 0.2333333333333333 0  0.5666666666666667 0.2333333333333333 0  0.6 0.2333333333333333 0  0.6333333333333333 0.2333333333333333 0  0.6666666666666666 0.2333333333333333 0  0.7 0.2333333333333333 0  0.7333333333333333 0.2333333333333333 0  0.7666666666666667 0.2333333333333333 0  0.8 0.2333333333333333 0  0.8333333333333334 0.2333333333333333 0  0.8666666666666667 0.2333333333333333 0  0.9 0.2333333333333333 0  0.9333333333333333 0.2333333333333333 0  0.9666666666666667 0.2333333333333333 0  1 0.2333333333333333 0  0 0.2666666666666667 0  0.03333333333333333 0.2666666666666667 0  0.06666666666666667 0.2666666666666667 0  0.1 0.2666666666666667 0  0.1333333333333333 0.2666666666666667 0  0.1666666666666667 0.2666666666666667 0  0.2 0.2666666666666667 0  0.2333333333333333 0.2666666666666667 0  0.2666666666666667 0.2666666666666667 0  0.3 0.2666666666666667 0  0.3333333333333333 0.2666666666666667 0  0.3666666666666666 0.2666666666666667 0  0.4 0.2666666666666667 0  0.4333333333333333 0.2666666666666667 0  0.4666666666666667 0.2666666666666667 0  0.5 0.2666666666666667 0  0.5333333333333333 0.2666666666666667 0  0.5666666666666667 0.2666666666666667 0  0.6 0.2666666666666667 0  0.6333333333333333 0.2666666666666667 0  0.6666666666666666 0.2666666666666667 0  0.7 0.2666666666666667 0  0.7333333333333333 0.2666666666666667 0  0.7666666666666667 0.2666666666666667 0  0.8 0.2666666666666667 0  0.8333333333333334 0.2666666666666667 0  0.8666666666666667 0.2666666666666667 0  0.9 0.2666666666666667 0  0.9333333333333333 0.2666666666666667 0  0.9666666666666667 0.2666666666666667 0  1 0.2666666666666667 0  0 0.3 0  0.03333333333333333 0.3 0  0.06666666666666667 0.3 0  0.1 0.3 0  0.1333333333333333 0.3 0  0.1666666666666667 0.3 0  0.2 0.3 0  0.2333333333333333 0.3 0  0.2666666666666667 0.3 0  0.3 0.3 0  0.3333333333333333 0.3 0  0.3666666666666666 0.3 0  0.4 0.3 0  0.4333333333333333 0.3 0  0.4666666666666667 0.3 0  0.5 0.3 0  0.5333333333333333 0.3 0  0.5666666666666667 0.3 0  0.6 0.3 0  0.6333333333333333 0.3 0  0.6666666666666666 0.3 0  0.7 0.3 0  0.7333333333333333 0.3 0  0.7666666666666667 0.3 0  0.8 0.3 0  0.8333333333333334 0.3 0  0.8666666666666667 0.3 0  0.9 0.3 0  0.9333333333333333 0.3 0  0.9666666666666667 0.3 0  1 0.3 0  0 0.3333333333333333 0  0.03333333333333333 0.3333333333333333 0  0.06666666666666667 0.3333333333333333 0  0.1 0.3333333333333333 0  0.1333333333333333 0.3333333333333333 0  0.1666666666666667 0.3333333333333333 0  0.2 0.3333333333333333 0  0.2333333333333333 0.3333333333333333 0  0.2666666666666667 0.3333333333333333 0  0.3 0.3333333333333333 0  0.3333333333333333 0.3333333333333333 0  0.3666666666666666 0.3333333333333333 0  0.4 0.3333333333333333 0  0.4333333333333333 0.3333333333333333 0  0.4666666666666667 0.3333333333333333 0  0.5 0.3333333333333333 0  0.5333333333333333 0.33333333333333
[...]
<PointData  Scalars="f_18-0"> 
<DataArray  type="Float64"  Name="f_18-0"  format="ascii">-5.1384153071720976e-16  7.0453057529834215e-14  1.2845934665939829e-14  -2.4720459406394268e-13  -3.1559669239678028e-13  1.1507211207841687e-13  6.1242994062585769e-13  6.9482066219392342e-13  6.6219843684531931e-13  1.0886916203691354e-12  1.9887670424252262e-12  2.8650903735352534e-12  3.2176291032125996e-12  2.8760845192899623e-12  2.0605803764145014e-12  1.1832985868136406e-12  5.4416260030272403e-13  2.0035832475359962e-13  5.9072559427270916e-14  1.3946079465591270e-14  2.6360384425631239e-15  3.9895054672300475e-16  4.8346273314841255e-17  4.6898312012207128e-18  3.6462805125876142e-19  2.2599752781275766e-20  1.1362834328025395e-21  4.6591334042397303e-23  4.6447361709292015e-25  3.3609717985860760e-25  7.6657353465833245e-26  6.6701905010783098e-14  -6.7282817029290982e-14  -1.4911287543676825e-13  2.0986618963312797e-13  7.6177011143004810e-13  6.8194623098579514e-13  7.2085224262874081e-13  3.7955298867016245e-12  1.2968980908065600e-11  2.9612015877229778e-11  5.1683130426766828e-11  7.1901766600585577e-11  8.0270944406456675e-11  7.1848829691683444e-11  5.1514220057066135e-11  2.9578999470983665e-11  1.3601743201300662e-11  5.0090496092354333e-12  1.4771930036949288e-12  3.4882858335336250e-13  6.5957564740916717e-14  9.9857536206114188e-15  1.2104406036866885e-15  1.1747919815865452e-16  9.1282701669897251e-18  5.6798728133358322e-19  2.8309245866327153e-20  1.1181970607011874e-21  3.8030169156895895e-23  9.1776814792633590e-25  -4.3253084906549607e-25  -1.6535339325422802e-13  -4.7711436625340168e-14  4.9229236864272519e-13  4.1969325919677662e-13  -4.0837493054373707e-13  4.5671603152859171e-12  3.0278912648866105e-11  1.0443582572331729e-10  2.7614077608013935e-10  5.9369716462222084e-10  1.0321955543273065e-09  1.4405560102249421e-09  1.6102372635797128e-09  1.4413569653648571e-09  1.0333393941425348e-09  5.9336609605297286e-10  2.7288998762255143e-10  1.0050861667165641e-10  2.9644168996470688e-11  7.0011665821065912e-12  1.3239598554668725e-12  2.0046346337413350e-13  2.4301986789270851e-14  2.3587719682620821e-15  1.8330405225200368e-16  1.1404802277211628e-17  5.6799409960715165e-19  2.2689064776432679e-20  7.2382887905140361e-22  1.5589919251430654e-23  2.4307958137818708e-24  -2.7308720852859246e-14  5.6621530135347922e-13  -1.3889427281832769e-13  9.7724832985621031e-13  2.3334995360203598e-11  1.2178884667474722e-10  4.8027767042884877e-10  1.6013186777509713e-09  4.3595664704175701e-09  9.5071098229680898e-09  1.6571272507071169e-08  2.3116403075918613e-08  2.5827586856252049e-08  2.3117065564097356e-08  1.6575048818085093e-08  9.5195408442355787e-09  4.3790419704889213e-09  1.6132668226492509e-09  4.7594837254372366e-10  1.1243617980317292e-10  2.1267557933842050e-11  3.2208841030743543e-12  3.9054015077699866e-13  3.7912546058352800e-14  2.9466112064437012e-15  1.8335100267163696e-16  9.1350113723304746e-18  3.6430547723200447e-19  1.1594046258515870e-20  3.1676538638517132e-22  -1.2028494867645527e-27  1.0336478522503944e-12  -3.6531945018614784e-13  3.4549975614119961e-12  4.7298297854111429e-11  2.7795224686076174e-10  1.4189375323371819e-09  6.0701738237849597e-09  2.0707614294286518e-08  5.6234301351175611e-08  1.2214363083674443e-07  2.1255646859823983e-07  2.9639541413508722e-07  3.3114624624961403e-07  2.9641543764112884e-07  2.1256944275409050e-07  1.2212089195059394e-07  5.6197985225286144e-08  2.0712730321294332e-08  6.1134399114789437e-09  1.4448398732392273e-09  2.7340370784946089e-10  4.1420484442533646e-11  5.0238552215347458e-12  4.8782362245160053e-13  3.7921971263109525e-14  2.3600771871124902e-15  1.1758727254242997e-16  4.6898636744712502e-18  1.5008310507992957e-19  3.7605541683661134e-21  8.0470804518995971e-23  -6.3128000824949710e-13  3.3833897689982998e-12  5.8303163060960864e-11  4.2252624620241281e-10  2.7729326606989864e-09  1.4857876972085634e-08  6.2914084547879588e-08  2.1270432425894169e-07  5.7650905423788235e-07  1.2522707246453165e-06  2.1790443690406116e-06  3.0376343529207748e-06  3.3930638786941408e-06  3.0372812186051305e-06  2.1787464068354320e-06  1.2522870283278877e-06  5.7663139737294075e-07  2.1266959139899546e-07  6.2812750910867217e-08  1.4854644233424688e-08  2.8125598769024517e-09  4.2631943924602587e-10  5.1730245446596077e-11  5.0248478429169529e-12  3.9072481631957759e-13  2.4321637074511200e-14  1.2119834622863692e-15  4.8355506122174631e-17  1.5431624939144281e-18  3.9534305827736401e-20  9.0394641162917342e-22  -1.2536791274499273e-12  4.7601253016019039e-11  4.2209786931247973e-10  3.4708210141358331e-09  2.3184669881376397e-08  1.2219703306065879e-07  5.1581984862605486e-07  1.7460446142191778e-06  4.7322829351318305e-06  1.0268687676485030e-05  1.7848950872008152e-05  2.4863378385474408e-05  2.7763718934912967e-05  2.4854785180862121e-05  1.7837257411514059e-05  1.0259882445819519e-05  4.7285746556638705e-06  1.7456791406543300e-06  5.1609907368396084e-07  1.2216554715843122e-07  2.3149903694617863e-08  3.5115148218135844e-09  4.2634705963948363e-10  4.1433227031682776e-11  3.2229620176673902e-12  2.0067586201571129e-13  1.0002051230718535e-14  3.9904214806926637e-16  1.2746419465988455e-17  3.2683362933326468e-19  6.1508606085147107e-21  2.5126088911779306e-11  2.7736076501833555e-10  2.7670357739713809e-09  2.3161458948155441e-08  1.5235536394240873e-07  8.0326510338242769e-07  3.3942535710617674e-06  1.1472409418182372e-05  3.1031989971999066e-05  6.7225219613113740e-05  1.1669446533090538e-04  1.6239530156733357e-04  1.8125210827438671e-04  1.6228031189036683e-04  1.1654070664041210e-04  6.7106823543241540e-05  3.0969354108790380e-05  1.1449310676278576e-05  3.3896085678054682e-06  8.0338983491331039e-07  1.5241574862550727e-07  2.3142443319943626e-08  2.8121412985282209e-09  2.7346802903408005e-10  2.1282740142879025e-11  1.3256304127494952e-12  6.6086744202888769e-14  2.6371914746996593e-15  8.4257380496856131e-17  2.1483265309118024e-18  4.5377475620218140e-20  1.3036231462926574e-10  1.4112455535644694e-09  1.4810431142476011e-08  1.2196734834714442e-07  8.0257699570894162e-07  4.2337615767535099e-06  1.7850527689922097e-05  6.0201097214635730e-05  1.6251024563659750e-04  3.5127784999508115e-04  6.0844309507937522e-04  8.4526737077116542e-04  9.4259926534679046e-04  8.4406559971208952e-04  6.0680109089753258e-04  3.4999010075914712e-04  1.6183201862791959e-04  5.9948304432460709e-05  1.7781946078600133e-05  4.2221046450131404e-06  8.0228859588467864e-07  1.2198863590327270e-07  1.4840754931947884e-08  1.4445343977082319e-09  1.1249908506512000e-10  7.0105719376174600e-12  3.4961491165039440e-13  1.3954501890999391e-14  4.4569202891419674e-16  1.1410418852308289e-17  2.3703043001464937e-19  4.8257815327906620e-10  6.0322004817204889e-09  6.2654913240496268e-08  5.1442411651330940e-07  3.3887731759495627e-06  1.7837704299017102e-05  7.5043636578692136e-05  2.5249635064423566e-04  6.7946015965376623e-04  1.4632886411358027e-03  2.5253480473035115e-03  3.4981847636486787e-03  3.8952287046753291e-03  3.4888606618262174e-03  2.5124572280079151e-03  1.4528954932721701e-03  6.7373585281727585e-04  2.5027338470194198e-04  7.4429787436165442e-05  1.7715088068380692e-05  3.3737177446781579e-06  5.1399742083056994e-07  6.2637353580607380e-08  6.1050947807850348e-09  4.7593648088088660e-10  2.9679491033562179e-11  1.4807820854043988e-12  5.9115986589776806e-14  1.8890254462030356e-15  4.8349583899513276e-17  9.6208063443237680e-19  1.5800439481087267e-09  2.0560216641306008e-08  2.1163976926762706e-07  1.7399740078015912e-06  1.1446403054010391e-05  6.0121938437869157e-05  2.5235091304483785e-04  8.4605633918675516e-04  2.2659283539645672e-03  4.8527564389384322e-03  8.3258963212125940e-03  1.1476177724403571e-02  1.2745114849959566e-02  1.1420003799224200e-02  8.2481077369952801e-03  4.7897794163016183e-03  2.2306973106517415e-03  8.3184592925589077e-04  2.4823346214400215e-04  5.9269412821374061e-05  1.1321427996288984e-05  1.7296862937990484e-06  2.1130194702094701e-07  2.0635924749734566e-08  1.6111040939410910e-09  1.0057141352194093e-10  5.0209155487637021e-12  2.0053157702816669e-13  6.4098315460809193e-15  1.6356332787097252e-16  3.4325756342604211e-18  4.3050522475472594e-09  5.5776572016020973e-08  5.7313670481680998e-07  4.7126367632156665e-06  3.0944539129857579e-05  1.6221695679446288e-04  6.7876338556652259e-04  2.2649610343700643e-03  6.0272261832823078e-03  1.2800674067984581e-02  2.1757139266197951e-02  2.9750339585245294e-02  3.2905240807187999e-02  2.9510252473213559e-02  2.1417155485195526e-02  1.2518343698529881e-02  5.8660096335873060e-03  2.1985177353345299e-03  6.5882659885849952e-04  1.5792233170085554e-04  3.0283900091462994e-05  4.6444252944891349e-06  5.6932848441085617e-07  5.5759294113584528e-08  4.3626157993429629e-09  2.7273074414326289e-10  1.3628492655801004e-11  5.4463825054748511e-13  1.7403662950420279e-14  4.4564599905382986e-16  9.3654604540857854e-18  9.4024059170581309e-09  1.2103062086227204e-07  1.2440203006590645e-06  1.0220340045770298e-05  6.7005549655986768e-05  3.5051067671532023e-04  1.4613244806430546e-03  4.8494332003378776e-03  1.2798051399985093e-02  2.6870632188695346e-02  4.5090868516266730e-02  6.1011626603534791e-02  6.7143313725286452e-02  6.0305884630742615e-02  4.4051994769102348e-02  2.5964355616511253e-02  1.2257584682741221e-02  4.6199011317012428e-03  1.3907061050892294e-03  3.3483895494833000e-04  6.4518587184847357e-05  9.9436609875239172e-06  1.2245435349116396e-06  1.2039479750752051e-07  9.4473996824324938e-09  5.9180509055295462e-10  2.9611758675530336e-11  1.1840698400689909e-12  3.7861467660664751e-14  9.7257750351523398e-16  1.8500560062949923e-17  1.6388002486116898e-08  2.1045205920802003e-07  2.1634366775225184e-06  1.7757360382554900e-05  1.1627425975053866e-04  6.0696174218407564e-04  2.5215740017642463e-03  8.3200721866795724e-03  2.1756166002676096e-02  4.5104439770499646e-02  7.4669224426792802e-02  9.9965271205128520e-02  1.0947516257092121e-01  9.8467459984501043e-02  7.2368637178646777e-02  4.2983503076562159e-02  2.0424142934237721e-02  7.7330192205938859e-03  2.3367205785677424e-03  5.6510968426583003e-04  1.0948275312746089e-04  1.6974657290767404e-05  2.1024324877721775e-06  2.0772037095167672e-07  1.6360850158714779e-08  1.0275664585951098e-09  5.1498596178989167e-11  2.0609594617775921e-12  6.6031445748208071e-14  1.6772509512090414e-15  3.4490233861419086e-17  2.2849374237164608e-08  2.9330520754262948e-07  3.0147483826081359e-06  2.4729058481620205e-05  1.6177887745425575e-04  8.4313186203697197e-04  3.4932288196120147e-03  1.1472308176372010e-02  2.9771417700532311e-02  6.1099715461319995e-02  1.0010445156572911e-01  1.3296692090157172e-01  1.4506883114262123e-01  1.3051567984335047e-01  9.6201989588292000e-02  5.7336351131278822e-02  2.7306490632157468e-02  1.0351857764396918e-02  3.1338365833910070e-03  7.6071103262553407e-04  1.4820844367261098e-04  2.3131919850760122e-05  2.8839106540027744e-06  2.8653760150049165e-07  2.2666879272867778e-08  1.4279488918799706e-09  7.1690964333405616e-11  2.8740005809072380e-12  9.1976783724919900e-14  2.3222229215241731e-15  6.3595150210091654e-17  2.5523315795640369e-08  3.2762138165849458e-07  3.3669994660203369e-06  2.7610916459558102e-05  1.8055778197412255e-04  9.4031815464221092e-04  3.8912461307909194e-03  1.2752378119575677e-02  3.2982319857922666e-02  6.7403618913457905e-02  1.0996857082203590e-01  1.4558194965528098e-01  1.5847078920913354e-01  1.4232123066663913e-01  1.0467693181788090e-01  6.2185806418274016e-02  2.9496225832144170e-02  1.1144519811849210e-02  3.3710193470909340e-03  8.2026148868358977e-04  1.6062284144271368e-04  2.5233809888601120e-05  3.1668381880276225e-06  3.1645141075220818e-07  2.5145133261201896e-08  1.5887605889828120e-09  7.9932597425641651e-11  3.2097803079472050e-12  1.0197231053622443e-13  2.7389503336113658e-15  4.6103132520707392e-17  2.2849656460114262e-08  2.9329024311050782e-07  3.0141946705649026e-06  2.4719876850480081e-05  1.6168108500846362e-04  8.4230640883574230e-04  3.4880205818193896e-03  1.1444743771981415e-02  2.9662175134094668e-02  6.0797635865316633e-02  9.9479788936351662e-02  1.3189968979319780e-01  1.4344757359640675e-01  1.2830422502563785e-01  9.3666618262451262e-02  5.5099456139838764e-02  2.5877788371688411e-02  9.7071698976990781e-03  2.9273114928837257e-03  7.1287955542470788e-04  1.4010806092544203e-04  2.2127625132519053e-05  2.7922480513344654e-06  2.8038230414741742e-07  2.2362657247593494e-08  1.4162629457163353e-09  7.1462285406945163e-11  2.8585306361499285e-12  9.1921882991973520e-14  2.5916020391665564e-15  -7.5592349169474649e-17  1.6393518244635020e-08  2.1041345613563817e-07  2.1628256946563388e-06  1.7744793377343594e-05  1.1614584054640609e-04  6.0587667897440555e-04  2.5147846095367001e-03  8.2849976978353005e-03  2.1615321165667875e-02  4.4699424882458864e-02  7.3793225296348505e-02  9.8408403258056429e-02  1.0706151508578259e-01  9.5200747028130403e-02  6.8724603865243220e-02  3.9869909587677624e-02  1.8489391029225751e-02  6.8766534467384465e-03  2.0653430967629140e-03  5.0257843935578770e-04  9.8928149713239810e-05  1.5668339364034266e-05  1.9831913044884917e-06  1.9975531776768088e-07  1.5960647908515446e-08  1.0130592492114131e-09  5.1188853553045335e-11  2.0227371250727187e-12  7.1708966586529103e-14  8.8037888586602168e-16  8.9605629258793197e-17  9.4239981609961445e-09  1.2096189568328616e-07  1.2437282806019035e-06  1.0210634858327386e-05  6.6908592487086957e-05  3.4970960704536951e-04  1.4563146522848574e-03  4.8245900152674237e-03  1.2697985617709013e-02  2.6567582854835150e-02  4.4390992889014859e-02  5.9696741611335077e-02  6.5048555114077020e-02  5.7495386793599307e-02  4.1019519535081789e-02  2.3474908544609718e-02  1.0763483412182253e-02  3.9743776745073470e-03  1.1888553041067896e-03  2.8865099604269033e-04  5.6765358733260724e-05  8.9861113268803637e-06  1.1373071357675722e-06  1.1460962189084180e-07  9.1453603234522653e-09  5.8347072190260894e-10  2.9024115442226996e-11  1.1912815509998988e-12  4.3578517437199125e-14  -1.3820827012332287e-15  9.4316956852480918e-16  4.3399145466164106e-09  5.5711563989071855e-08  5.7303777082764623e-07  4.7081340446680262e-06  3.0893343430915620e-05  1.6182541075602936e-04  6.7628849469175115e-04  2.2531437594350027e-03  5.9807940747281596e-03  1.2654243923371786e-02  2.1394032294141566e-02  2.9023772866266173e-02  3.1710312281130214e-02  2.7914406057561913e-02  1.9744910042429790e-02  1.1195348581911601e-02  5.0972259619767356e-03  1.8735283976208043e-03  5.5840436002636742e-04  1.3512412727722820e-04  2.6482517281161544e-05  4.1754302391070404e-06  5.2698894965325037e-07  5.2930132243767712e-08  4.2114598851999428e-09  2.7124970726187994e-10  1.2582411863089705e-11  7.1150998774641678e-13  -5.9873933277858109e-15  2.0197600208979279e-15  7.0729761510748901e-16  1.6007514398048855e-09  2.0552959353779889e-08  2.1148765450244275e-07  1.7390319797440882e-06  1.1426769540943371e-05  5.9984738709535924e-05  2.5150529776733283e-04  8.4201940238557023e-04  2.2506027209289814e-03  4.8040566877296008e-03  8.1985068744495088e-03  1.1206180970992916e-02  1.2286444117058086e-02  1.0806756487184375e-02  7.6184687696724280e-03  4.3051613988334611e-03  1.9556511253381276e-03  7.1730382379518753e-04  2.1315740694566635e-04  5.1372988909354512e-05  1.0010842540564036e-05  1.5681573459090748e-06  1.9704503382164257e-07  1.9606972184258137e-08  1.5706257161657481e-09  9.9433158188951097e-11  4.2673770977771047e-12  4.5168213532981974e-13  -5.7502201666493139e-14  1.3430505928965685e-14  -3.5675095183970965e-15  4.7280746153443048e-10  6.0722388270526406e-09  6.2506954312818979e-08  5.1439111063549445e-07  3.3842872936531932e-06  1.7799970873188871e-05  7.4838487551458276e-05  2.5151899839385045e-04  6.7572697056803997e-04  1.4514559188890253e-03  2.4936950615738495e-03  3.4287272135483044e-03  3.7744751238082096e-03  3.3268762722443953e-03  2.3479911362767280e-03  1.3282989121771161e-03  6.0393183434139474e-04  2.2145096701244653e-04  6.5670700546015633e-05  1.5755958460851373e-05  3.0481038893208617e-06  4.7444290563204186e-07  5.9174355339644140e-08  5.8101085282579342e-09  4.8252552735304368e-10  2.5202457311595435e-11  1.9875493154514082e-12  9.5458652540281425e-14  -4.5075002920902898e-14  1.8424042517975483e-14  -8.8937295232573735e-15  1.1181422979731297e-10  1.4364630863650073e-09  1.4792036444833346e-08  1.2181479730277461e-07  8.0234118432061238e-07  4.2267807516601784e-06  1.7810260564988809e-05  6.0030401799453273e-05  1.6186507646823075e-04  3.4919014423918460e-04  6.0275832744801370e-04  8.3258762223968228e-04  9.2030035262403824e-04  8.1405275839409059e-04  5.7642939332903931e-04  3.2711914985001419e-04  1.4909662647826137e-04  5.4723050239542274e-05  1.6202838208204626e-05  3.8684118297141196e-06  7.4371935954226339e-07  1.1516514884475138e-07  1.4138290620283606e-08  1.4012853800002475e-09  1.1848228349241128e-10  2.9288686384097273e-12  1.5958180114561314e-12  -2.6050922595731386e-13  3.6495068775943491e-14  2.3088312321992526e-15  -6.2269894357473502e-15  2.1169719890116816e-11  2.7205294085046422e-10  2.8023331764799725e-09  2.3091538756158360e-08  1.5223440191119083e-07  8.0300852007117509e-07  3.3892980859371658e-06  1.1447909580771820e-05  3.0946833713148585e-05  6.6959899325890824e-05  1.1596567760636164e-04  1.6074369186381727e-04  1.7831413479146529e-04  1.5830201889880578e-04  1.1250950945772267e-04  6.4078076148859142e-05  2.9289713304419732e-05  1.0761777993147065e-05  3.1810562468062799e-06  7.5674635255556097e-07  1.4500247072938200e-07  2.2210809405568370e-08  2.6919991199596903e-09  2.8619645021771876e-10  1.7117546711645618e-11  1.0070932319111024e-12  6.6765828151524207e-13  -2.7569371774090896e-13  8.5445825140735668e-14  -1.9878190216107906e-14  4.9438032391564330e-15  3.2085514613087712e-12  4.1246227969867859e-11  4.2497183451644530e-10  3.5035296707679274e-09  2.3114411439356585e-08  1.2204393681227078e-07  5.1575548512048068e-07  1.7446629724378425e-06  4.7246057898885454e-06  1.0243282384910717e-05  1.7780246932204826e-05  2.4707870050188209e-05  2.7484897267412791e-05  2.4474659464292310e-05  1.7450698126979902e-05  9.9686994730500275e-06  4.5662591845902456e-06  1.6787973481754017e-06  4.9600528639895824e-07  1.1786734076558127e-07  2.2415012570466330e-08  3.3846774639981769e-09  4.3161870362620109e-10  4.2811495914787876e-11  1.0040534844520639e-13  1.4476853746051150e-12  -2.1452053568598402e-13  -3.5540503982532559e-14  4.4313990196847558e-14  -2.0649830457426885e-14  1.1592210723947700e-14  3.8927843428533935e-13  5.0056435326351490e-12  5.1584919716957614e-11  4.2543631264882705e-10  2.8083575909765651e-09  1.4838843419977912e-08  6.2764293237415099e-08  2.1253558279309798e-07  5.7623475766164461e-07  1.2509779878579983e-06  2.1746865655244277e-06  3.0271295427461386e-06  3.3738764524195491e-06  3.0108009984280587e-06  2.1514835979840759e-06  1.2315570290532787e-06  5.6513237451251085e-07  2.0809294629218481e-07  6.1478775204699059e-08  1.4511158657191753e-08  2.7348428457515765e-09  4.3068683513140054e-10  5.4474319456242478e-11  1.6421191504638264e-12  1.0575873430045459e-12  2.9806515090906527e-13  -2.3777775308923109e-13  8.3652384421493937e-14  -1.2671426664436139e-14  -3.6550888712744310e-15  6.3925070846270880e-15  3.7805813974087271e-14  4.8625607042907602e-13  5.0118038201625839e-12  4.1345648823819590e-11  2.7303783698980053e-10  1.4434234243297523e-09  6.1090358643481601e-09  2.0701166491570788e-08  5.6169128618980079e-08  1.2204344846934470e-07  2.1235639300938057e-07  2.9590480056524048e-07  3.3019053948968893e-07  2.9505917796486018e-07  2.1117823500976581e-07  1.2109053682050903e-07  5.5629518186955975e-08  2.0449855872431605e-08  6.0042113454894899e-09  1.4212209049537302e-09  2.8084466216270684e-10  4.2591283948993713e-11  2.18874