<?xml version="1.0"?>
<VTKFile type="UnstructuredGrid"  version="0.1"  >
<UnstructuredGrid>
<Piece  NumberOfPoints="441" NumberOfCells="800">
<Points>
<DataArray  type="Float64"  NumberOfComponents="3"  format="ascii">-0.5 -0.5 0  -0.45 -0.5 0  -0.4 -0.5 0  -0.35 -0.5 0  -0.3 -0.5 0  -0.25 -0.5 0  -0.2 -0.5 0  -0.15 -0.5 0  -0.09999999999999998 -0.5 0  -0.04999999999999999 -0.5 0  0 -0.5 0  0.05000000000000004 -0.5 0  0.09999999999999998 -0.5 0  0.15 -0.5 0  0.2 -0.5 0  0.25 -0.5 0  0.3 -0.5 0  0.35 -0.5 0  0.4 -0.5 0  0.45 -0.5 0  0.5 -0.5 0  -0.5 -0.45 0  -0.45 -0.45 0  -0.4 -0.45 0  -0.35 -0.45 0  -0.3 -0.45 0  -0.25 -0.45 0  -0.2 -0.45 0  -0.15 -0.45 0  -0.09999999999999998 -0.45 0  -0.04999999999999999 -0.45 0  0 -0.45 0  0.05000000000000004 -0.45 0  0.09999999999999998 -0.45 0  0.15 -0.45 0  0.2 -0.45 0  0.25 -0.45 0  0.3 -0.45 0  0.35 -0.45 0  0.4 -0.45 0  0.45 -0.45 0  0.5 -0.45 0  -0.5 -0.4 0  -0.45 -0.4 0  -0.4 -0.4 0  -0.35 -0.4 0  -0.3 -0.4 0  -0.25 -0.4 0  -0.2 -0.4 0  -0.15 -0.4 0  -0.09999999999999998 -0.4 0  -0.04999999999999999 -0.4 0  0 -0.4 0  0.05000000000000004 -0.4 0  0.09999999999999998 -0.4 0  0.15 -0.4 0  0.2 -0.4 0  0.25 -0.4 0  0.3 -0.4 0  0.35 -0.4 0  0.4 -0.4 0  0.45 -0.4 0  0.5 -0.4 0  -0.5 -0.35 0  -0.45 -0.35 0  -0.4 -0.35 0  -0.35 -0.35 0  -0.3 -0.35 0  -0.25 -0.35 0  -0.2 -0.35 0  -0.15 -0.35 0  -0.09999999999999998 -0.35 0  -0.04999999999999999 -0.35 0  0 -0.35 0  0.05000000000000004 -0.35 0  0.09999999999999998 -0.35 0  0.15 -0.35 0  0.2 -0.35 0  0.25 -0.35 0  0.3 -0.35 0  0.35 -0.35 0  0.4 -0.35 0  0.45 -0.35 0  0.5 -0.35 0  -0.5 -0.3 0  -0.45 -0.3 0  -0.4 -0.3 0  -0.35 -0.3 0  -0.3 -0.3 0  -0.25 -0.3 0  -0.2 -0.3 0  -0.15 -0.3 0  -0.09999999999999998 -0.3 0  -0.04999999999999999 -0.3 0  0 -0.3 0  0.05000000000000004 -0.3 0  0.09999999999999998 -0.3 0  0.15 -0.3 0  0.2 -0.3 0  0.25 -0.3 0  0.3 -0.3 0  0.35 -0.3 0  0.4 -0.3 0  0.45 -0.3 0  0.5 -0.3 0  -0.5 -0.25 0  -0.45 -0.25 0  -0.4 -0.25 0  -0.35 -0.25 0  -0.3 -0.25 0  -0.25 -0.25 0  -0.2 -0.25 0  -0.15 -0.25 0  -0.09999999999999998 -0.25 0  -0.04999999999999999 -0.25 0  0 -0.25 0  0.05000000000000004 -0.25 0  0.09999999999999998 -0.25 0  0.15 -0.25 0  0.2 -0.25 0  0.25 -0.25 0  0.3 -0.25 0  0.35 -0.25 0  0.4 -0.25 0  0.45 -0.25 0  0.5 -0.25 0  -0.5 -0.2 0  -0.45 -0.2 0  -0.4 -0.2 0  -0.35 -0.2 0  -0.3 -0.2 0  -0.25 -0.2 0  -0.2 -0.2 0  -0.15 -0.2 0  -0.09999999999999998 -0.2 0  -0.04999999999999999 -0.2 0  0 -0.2 0  0.05000000000000004 -0.2 0  0.09999999999999998 -0.2 0  0.15 -0.2 0  0.2 -0.2 0  0.25 -0.2 0  0.3 -0.2 0  0.35 -0.2 0  0.4 -0.2 0  0.45 -0.2 0  0.5 -0.2 0  -0.5 -0.15 0  -0.45 -0.15 0  -0.4 -0.15 0  -0.35 -0.15 0  -0.3 -0.15 0  -0.25 -0.15 0  -0.2 -0.15 0  -0.15 -0.15 0  -0.09999999999999998 -0.15 0  -0.04999999999999999 -0.15 0  0 -0.15 0  0.05000000000000004 -0.15 0  0.09999999999999998 -0.15 0  0.15 -0.15 0  0.2 -0.15 0  0.25 -0.15 0  0.3 -0.15 0  0.35 -0.15 0  0.4 -0.15 0  0.45 -0.15 0  0.5 -0.15 0  -0.5 -0.09999999999999998 0  -0.45 -0.09999999999999998 0  -0.4 -0.09999999999999998 0  -0.35 -0.09999999999999998 0  -0.3 -0.09999999999999998 0  -0.25 -0.09999999999999998 0  -0.2 -0.09999999999999998 0  -0.15 -0.09999999999999998 0  -0.09999999999999998 -0.09999999999999998 0  -0.04999999999999999 -0.09999999999999998 0  0 -0.09999999999999998 0  0.05000000000000004 -0.09999999999999998 0  0.09999999999999998 -0.09999999999999998 0  0.15 -0.09999999999999998 0  0.2 -0.09999999999999998 0  0.25 -0.09999999999999998 0  0.3 -0.09999999999999998 0  0.35 -0.09999999999999998 0  0.4 -0.09999999999999998 0  0.45 -0.09999999999999998 0  0.5 -0.09999999999999998 0  -0.5 -0.04999999999999999 0  -0.45 -0.04999999999999999 0  -0.4 -0.04999999999999999 0  -0.35 -0.04999999999999999 0  -0.3 -0.04999999999999999 0  -0.25 -0.04999999999999999 0  -0.2 -0.04999999999999999 0  -0.15 -0.04999999999999999 0  -0.09999999999999998 -0.04999999999999999 0  -0.04999999999999999 -0.04999999999999999 0  0 -0.04999999999999999 0  0.05000000000000004 -0.04999999999999999 0  0.09999999999999998 -0.04999999999999999 0  0.15 -0.04999999999999999 0  0.2 -0.04999999999999999 0  0.25 -0.04999999999999999 0  0.3 -0.04999999999999999 0  0.35 -0.04999999999999999 0  0.4 -0.04999999999999999 0  0.45 -0.04999999999999999 0  0.5 -0.04999999999999999 0  -0.5 0 0  -0.45 0 0  -0.4 0 0  -0.35 0 0  -0.3 0 0  -0.25 0 0  -0.2 0 0  -0.15 0 0  -0.09999999999999998 0 0  -0.04999999999999999 0 0  0 0 0  0.05000000000000004 0 0  0.09999999999999998 0 0  0.15 0 0  0.2 0 0  0.25 0 0  0.3 0 0  0.35 0 0  0.4 0 0  0.45 0 0  0.5 0 0  -0.5 0.05000000000000004 0  -0.45 0.05000000000000004 0  -0.4 0.05000000000000004 0  -0.35 0.05000000000000004 0  -0.3 0.05000000000000004 0  -0.25 0.05000000000000004 0  -0.2 0.05000000000000004 0  -0.15 0.05000000000000004 0  -0.09999999999999998 0.05000000000000004 0  -0.04999999999999999 0.05000000000000004 0  0 0.05000000000000004 0  0.05000000000000004 0.05000000000000004 0  0.09999999999999998 0.05000000000000004 0  0.15 0.05000000000000004 0  0.2 0.05000000000000004 0  0.25 0.05000000000000004 0  0.3 0.05000000000000004 0  0.35 0.05000000000000004 0  0.4 0.05000000000000004 0  0.45 0.05000000000000004 0  0.5 0.05000000000000004 0  -0.5 0.09999999999999998 0  -0.45 0.09999999999999998 0  -0.4 0.09999999999999998 0  -0.35 0.09999999999999998 0  -0.3 0.09999999999999998 0  -0.25 0.09999999999999998 0  -0.2 0.09999999999999998 0  -0.15 0.09999999999999998 0  -0.09999999999999998 0.09999999999999998 0  -0.04999999999999999 0.09999999999999998 0  0 0.09999999999999998 0  0.05000000000000004 0.09999999999999998 0  0.09999999999999998 0.09999999999999998 0  0.15 0.09999999999999998 0  0.2 0.09999999999999998 0  0.25 0.09999999999999998 0  0.3 0.09999999999999998 0  0.35 0.09999999999999998 0  0.4 0.09999999999999998 0  0.45 0.09999999999999998 0  0.5 0.09999999999999998 0  -0.5 0.15 0  -0.45 0.15 0  -0.4 0.15 0  -0.35 0.15 0  -0.3 0.15 0  -0.25 0.15 0  -0.2 0.15 0  -0.15 0.15 0  -0.09999999999999998 0.15 0  -0.04999999999999999 0.15 0  0 0.15 0  0.05000000000000004 0.15 0  0.09999999999999998 0.15 0  0.15 0.15 0  0.2 0.15 0  0.25 0.15 0  0.3 0.15 0  0.35 0.15 0  0.4 0.15 0  0.45 0.15 0  0.5 0.15 0  -0.5 0.2 0  -0.45 0.2 0  -0.4 0.2 0  -0.35 0.2 0  -0.3 0.2 0  -0.25 0.2 0  -0.2 0.2 0  -0.15 0.2 0  -0.09999999999999998 0.2 0  -0.04999999999999999 0.2 0  0 0.2 0  0.05000000000000004 0.2 0  0.09999999999999998 0.2 0  0.15 0.2 0  0.2 0.2 0  0.25 0.2 0  0.3 0.2 0  0.35 0.2 0  0.4 0.2 0  0.45 0.2 0  0.5 0.2 0  -0.5 0.25 0  -0.45 0.25 0  -0.4 0.25 0  -0.35 0.25 0  -0.3 0.25 0  -0.25 0.25 0  -0.2 0.25 0  -0.15 0.25 0  -0.09999999999999998 0.25 0  -0.04999999999999999 0.25 0  0 0.25 0  0.05000000000000004 0.25 0  0.09999999999999998 0.25 0  0.15 0.25 0  0.2 0.25 0  0.25 0.25 0  0.3 0.25 0  0.35 0.25 0  0.4 0.25 0  0.45 0.25 0  0.5 0.25 0  -0.5 0.3 0  -0.45 0.3 0  -0.4 0.3 0  -0.35 0.3 0  -0.3 0.3 0  -0.25 0.3 0  -0.2 0.3 0  -0.15 0.3 0  -0.09999999999999998 0.3 0  -0.04999999999999999 0.3 0  0 0.3 0  0.05000000000000004 0.3 0  0.09999999999999998 0.3 0  0.15 0.3 0  0.2 0.3 0  0.25 0.3 0  0.3 0.3 0  0.35 0.3 0  0.4 0.3 0  0.45 0.3 0  0.5 0.3 0  -0.5 0.35 0  -0.45 0.35 0  -0.4 0.35 0  -0.35 0.35 0  -0.3 0.35 0  -0.25 0.35 0  -0.2 0.35 0  -0.15 0.35 0  -0.09999999999999998 0.35 0  -0.04999999999999999 0.35 0  0 0.35 0  0.05000000000000004 0.35 0  0.09999999999999998 0.35 0  0.15 0.35 0  0.2 0.35 0  0.25 0.35 0  0.3 0.35 0  0.35 0.35 0  0.4 0.35 0  0.45 0.35 0  0.5 0.35 0  -0.5 0.4 0  -0.45 0.4 0  -0.4 0.4 0  -0.35 0.4 0  -0.3 0.4 0  -0.25 0.4 0  -0.2 0.4 0  -0.15 0.4 0  -0.09999999999999998 0.4 0  -0.04999999999999999 0.4 0  0 0.4 0  0.05000000000000004 0.4 0  0.09999999999999998 0.4 0  0.15 0.4 0  0.2 0.4 0  0.25 0.4 0  0.3 0.4 0  0.35 0.4 0  0.4 0.4 0  0.45 0.4 0  0.5 0.4 0  -0.5 0.45 0  -0.45 0.45 0  -0.4 0.45 0  -0.35 0.45 0  -0.3 0.45 0  -0.25 0.45 0  -0.2 0.45 0  -0.15 0.45 0  -0.09999999999999998 0.45 0  -0.04999999999999999 0.45 0  0 0.45 0  0.05000000000000004 0.45 0  0.09999999999999998 0.45 0  0.15 0.45 0  0.2 0.45 0  0.25 0.45 0  0.3 0.45 0  0.35 0.45 0  0.4 0.45 0  0.45 0.45 0  0.5 0.45 0  -0.5 0.5 0  -0.45 0.5 0  -0.4 0.5 0  -0.35 0.5 0  -0.3 0.5 0  -0.25 0.5 0  -0.2 0.5 0  -0.15 0.5 0  -0.09999999999999998 0.5 0  -0.04999999999999999 0.5 0  0 0.5 0  0.05000000000000004 0.5 0  0.09999999999999998 0.5 0  0.15 0.5 0  0.2 0.5 0  0.25 0.5 0  0.3 0.5 0  0.35 0.5 0  0.4 0.5 0  0.45 0.5 0  0.5 0.5 0  </DataArray>
</Points>
<Cells>
[...]
<PointData  Scalars="f_18-0"> 
<DataArray  type="Float64"  Name="f_18-0"  format="ascii">-4.5661326365113391e-18  4.9224700102195588e-18  1.2204759955204704e-17  -2.9629730929152563e-17  -6.0275258955198973e-17  1.1826482785490499e-16  4.1877832751362469e-16  3.2009503235280124e-16  -3.4749060139234112e-16  -9.0730799431820577e-16  -7.4520100091811130e-16  -1.8368611940835961e-16  1.2019490769133737e-16  7.5234544180414700e-17  -1.4269486337747601e-17  -1.5632880666318254e-17  3.3298280451594831e-18  2.5872842585351646e-18  -1.0556979705538031e-18  -2.5982913668499584e-19  3.8745950967519868e-19  6.2831365369970796e-18  3.5295828524460736e-18  -2.2116337273824096e-17  -2.1450337254460790e-18  1.1506989068284008e-16  2.1441902515912483e-17  -5.5548826088999662e-16  -9.2004203792031937e-16  -7.5908729770169028e-17  1.4119868307088506e-15  1.8563131960332431e-15  9.2482113339916249e-16  -6.1246762343558529e-17  -2.4511608446102404e-16  -3.3554534595022139e-17  4.6562378263621463e-17  5.8069928461783338e-18  -9.2737557658726090e-18  3.7467050007793013e-19  1.6287391548589016e-18  -5.1510911828929368e-19  5.0883343213527862e-18  -2.2640195871015778e-17  1.6938995396354950e-17  9.7248695380714839e-17  -1.5990500844409666e-16  -4.5991452895628731e-16  7.1368067350443980e-16  2.9808374227880500e-15  2.4320248813243424e-15  -2.4410704625615327e-15  -6.5565305671598704e-15  -5.2657951388788431e-15  -1.1494042470387182e-15  9.0066670255324308e-16  4.6942417820494600e-16  -1.3050303731792161e-16  -9.1225677191575558e-17  3.1397159534480893e-17  1.2147548653637146e-17  -8.2821032064207016e-18  -3.4556212571726921e-20  -4.1039353513583739e-17  2.4752716880088457e-17  7.9250061256110006e-17  -2.3690502626538150e-16  -1.7936912479752184e-16  1.3885428778969991e-15  6.8070491961411291e-16  -6.9496670319574192e-15  -1.2605751008189218e-14  -1.5305271442031795e-15  1.8965385963909902e-14  2.4812809925547474e-14  1.1707241764920958e-14  -1.3091028722472985e-15  -3.1086206141022636e-15  -1.9947101207639822e-16  5.9129108108151804e-16  2.8103394162075024e-18  -1.0865087193041330e-16  2.1547899852244654e-17  1.4029151945613444e-17  2.8961497947067457e-17  8.1341830687400571e-17  -2.5051696705942703e-16  -7.1388663938331627e-18  1.4145116889290916e-15  -1.4272405849516673e-15  -6.7856196598274864e-15  8.0085647428086825e-15  4.1920307918333952e-14  3.6782693230607705e-14  -3.3949334835709925e-14  -9.4128609679247247e-14  -7.3600553503894904e-14  -1.3732650835278362e-14  1.3237357827436353e-14  5.5531485368211069e-15  -2.1778624964374416e-15  -9.5155358874488916e-16  5.1187336303685304e-16  7.2141119391191846e-17  -1.1067354280017190e-16  1.7868294608844736e-16  -2.3704699242461717e-16  -1.3170618586737256e-17  1.3380798194924570e-15  -2.3015593715142571e-15  -4.3349722268392173e-15  1.7060319720674433e-14  1.5003471545871538e-14  -9.1920433246707835e-14  -1.8484022200160733e-13  -2.9695240401759262e-14  2.7330229359710918e-13  3.5524751360576413e-13  1.5770383509663937e-13  -2.5340827046894529e-14  -4.1487127317602906e-14  4.1616225631538970e-16  7.6577630108435064e-15  -8.7642927017556549e-16  -1.2096050104005925e-15  4.6264733186745654e-16  -2.5498870832365605e-16  -1.8599611486152079e-16  1.3324733582978633e-15  -2.1852811816776528e-15  -3.2709262227424505e-15  1.8669853915838183e-14  -7.4054594376746403e-15  -9.7412990488126835e-14  8.1026498032643552e-14  5.9040805687793792e-13  5.6156262643346592e-13  -4.7467461083143198e-13  -1.3626270882806876e-12  -1.0321639471754839e-12  -1.5664972611490506e-13  1.9297366346140317e-13  6.2087419071501767e-14  -3.4129936953207637e-14  -8.2277740247621861e-15  7.4778883875394734e-15  -3.9034067030177171e-16  -7.6999656605917930e-16  1.2466184938974367e-15  -1.1497295895544219e-15  -4.2237147912596729e-15  1.7948986703763937e-14  -1.3843996019294608e-14  -8.0863438215389441e-14  1.9131264240633689e-13  2.8748879137899788e-13  -1.1897211982917470e-12  -2.7185957961936744e-12  -5.5204634054031593e-13  3.9575493400483644e-12  5.0965962098376301e-12  2.1028101161038475e-12  -4.5605883603145887e-13  -5.4040883328772203e-13  5.0103561802679349e-14  9.2745525874199512e-14  -2.3506814827434132e-14  -1.0657084326527165e-14  8.9790320897951363e-16  7.4194809612162591e-16  -5.8610147851632462e-15  1.4589969988501283e-14  -5.1936053870592011e-15  -7.8977507949978319e-14  2.0955620926906300e-13  8.6899716349286746e-14  -1.3365895547045657e-12  6.2640939046342382e-13  8.2716352129240570e-12  8.6299755107105096e-12  -6.6433541694133877e-12  -1.9809386670795980e-11  -1.4436179949123186e-11  -1.6326366578182659e-12  2.7702936121965535e-12  6.2313944933170470e-13  -5.0400934674301028e-13  -3.6667972769787317e-14  9.6401410836334526e-14  3.6811282934352102e-15  -4.8912129769392302e-15  4.9258765099763414e-15  1.4811871622749546e-14  -8.5924237197064461e-14  1.6774680556421599e-13  9.7658351385905451e-14  -1.2682198174968181e-12  1.7633755219487340e-12  5.0641510332028845e-12  -1.4855316495358775e-11  -4.0123097697911137e-11  -1.0015414035277488e-11  5.7649403399869868e-11  7.3233852398449504e-11  2.7628221195474786e-11  -7.8091560045678068e-12  -6.7976583793364820e-12  1.2970946285223644e-12  1.0120698776482025e-12  -4.4438310484719700e-13  2.0555165044481699e-15  -7.6289944044867515e-15  2.6729618978997007e-14  -6.1086272293993449e-14  4.4482307680650758e-14  2.7911425512075846e-13  -1.2131627979200948e-12  1.5970781614225347e-12  3.8548512921399923e-12  -1.6981356896565715e-11  3.9796005848222790e-13  1.1489526881052871e-10  1.3381605744392103e-10  -9.3230483405714020e-11  -2.8940348355990597e-10  -2.0084805207361760e-10  -1.3552806771114290e-11  4.0207633837091186e-11  6.4498037575641838e-12  -5.8017484592543262e-12  1.2084387634718509e-12  -4.1829734852751976e-15  1.7132110721413236e-15  1.6486349922780617e-14  -1.0818507360653791e-13  3.8375506799514418e-13  -7.9755995964125518e-13  2.0969947997454036e-13  4.9277571307840091e-12  -1.5981351393290409e-11  7.7408426715885649e-12  8.3068014839368480e-11  -1.7357562873311381e-10  -5.9501577205658168e-10  -1.7905728345184667e-10  8.4999500011368566e-10  1.0717079641209257e-09  4.2019609489631139e-10  8.1149269125391266e-12  9.4064765031902948e-11  1.6236138133343553e-10  7.3147118306232904e-11  -7.1224861402171791e-15  1.3369213545378560e-14  -3.0378059673623942e-14  1.8828920822819606e-14  2.6440563005887611e-13  -1.6446091409913439e-12  5.5129392451362395e-12  -9.9671924379003092e-12  -4.2121056830551840e-12  8.1980563898120352e-11  -1.8238319060619219e-10  -1.3355368585571456e-10  1.5732698765647615e-09  2.1265628285131041e-09  -1.0930874568443420e-09  -2.9549317501050929e-09  1.7532507231337388e-09  9.5278541616037227e-09  1.2855492010443324e-08  9.6034893876829454e-09  4.4425103007927210e-09  -3.4617586157572090e-15  1.1820821844177529e-14  -5.2066386100104417e-14  1.8393742695834732e-13  -4.3923473793883814e-13  2.0297683782552036e-13  4.3012680237818949e-12  -2.5179542300078609e-11  7.8544589395345132e-11  -1.1422911639717453e-10  -1.8276424602734507e-10  1.2404668739132509e-09  -1.6704709452118628e-09  -7.8849792138187329e-09  6.3930237282102494e-09  6.7795945035197229e-08  2.0779331089925332e-07  4.1234411611005653e-07  5.2168653564606187e-07  4.0698070249088621e-07  1.9312756546591200e-07  6.7763333731614366e-16  1.7870575350168697e-15  -2.3431458960067318e-14  1.5708350846664429e-13  -7.5786572201478457e-13  2.7231302588652122e-12  -6.4227417931459556e-12  1.7228460182757476e-12  7.0964919912844505e-11  -3.8862577755407894e-10  1.1020572277979324e-09  -9.6225863392653191e-10  -2.5000958780000149e-09  4.6872584740518672e-08  2.8123175942441238e-07  1.4045179892094736e-06  4.9062102895225322e-06  1.0481478338712998e-05  1.3508303181688331e-05  1.0526892179392312e-05  4.9683195737124946e-06  9.8903985063076827e-16  -2.5835755917174911e-15  6.2556505814223317e-15  1.5710522405908815e-14  -3.0879765156162765e-13  2.2311217595395950e-12  -1.1153156091073787e-11  4.0739469583648330e-11  -9.4736045549674738e-11  2.8412513803017303e-12  1.2173696784776284e-09  -5.0732028893524132e-09  4.0331662485600698e-08  3.9934460065126054e-07  3.7344143287845809e-06  2.2211034292401717e-05  7.7915337240437252e-05  1.6475542681298138e-04  2.1133138976454390e-04  1.6451291434517015e-04  7.7719746508217457e-05  -9.2077530113208687e-17  -6.7635942518582685e-16  6.4685513732680286e-15  -3.5484855816731065e-14  1.1010731511255545e-13  9.6662365501684851e-14  -3.9868817072626945e-12  3.1635692718934072e-11  -1.6545411493439913e-10  6.2120453261225654e-10  -1.1885518151576024e-09  9.2146693695446233e-09  2.6873808853687252e-07  3.7823561748707198e-06  3.6952694451815316e-05  2.1181960277359704e-04  7.3693240945831527e-04  1.5596415984795626e-03  2.0031511792033990e-03  1.5607034588550786e-03  7.3742878747311866e-04  -2.0284756723017373e-16  5.5948760972798704e-16  -1.2831760741283507e-15  -5.0395276432627647e-15  7.9408452185702780e-14  -5.0814256466817959e-13  1.8825669619168635e-12  -7.7013532288683517e-13  -4.9001996655893726e-11  4.6495611096595687e-10  -1.1843072927068753e-09  6.4727405013287440e-08  1.4010740289798662e-06  2.2235605237966722e-05  2.1145725128044753e-04  1.2128573059015245e-03  4.2373577772892553e-03  8.9689830912300494e-03  1.1508706512541277e-02  8.9670756127517449e-03  4.2382290449286368e-03  4.4798623680643192e-17  7.2702604510418540e-17  -1.1751931599401218e-15  7.5620501093993990e-15  -2.6432779069686618e-14  -1.1465734478272256e-14  8.9161779722144189e-13  -7.0147449069787468e-12  3.1833072664075089e-11  1.6515449658950043e-11  3.9795149004795976e-09  1.9889808620163903e-07  4.9300099495552324e-06  7.7832237672276590e-05  7.3630055098482261e-04  4.2352601171072521e-03  1.4766473293173708e-02  3.1134154905122790e-02  3.9880999475449978e-02  3.1121770798016469e-02  1.4747641001554792e-02  3.1447238898704307e-17  -1.2139762795466594e-16  4.5892036206124385e-16  -3.1871349507442328e-16  -1.1123346012030332e-14  9.9255015209329106e-14  -4.6687072332421278e-13  7.7808050041824556e-13  9.2412880107484274e-12  4.6193139906548450e-11  1.0093422004351715e-08  4.0636306698341076e-07  1.0504984065714056e-05  1.6435837246772667e-04  1.5562620161101819e-03  8.9444016806950136e-03  3.1072879937667629e-02  6.5298872555135126e-02  8.3567191331443497e-02  6.5359831251800463e-02  3.1081718148725575e-02  -2.4067651584262013e-17  1.6688669788701485e-17  1.0383628863832336e-16  -1.3147674427718515e-15  7.5044791023410893e-15  -2.0828470306870697e-14  -5.8770680970522132e-14  1.1168628167798979e-12  -5.6844912869381675e-12  2.0014842209637883e-10  1.2340904956503416e-08  5.2251324981090537e-07  1.3501203380526714e-05  2.1081080802694513e-04  1.9970561150475228e-03  1.1461569012117824e-02  3.9763675152287487e-02  8.3480580653622682e-02  1.0674812641383390e-01  8.3547787417161595e-02  3.9837414754468586e-02  </DataArray> 
</PointData> 
</Piece>
</UnstructuredGrid>
</VTKFile>