<?xml version="1.0"?>
<VTKFile type="UnstructuredGrid"  version="0.1"  >
<UnstructuredGrid>
<Piece  NumberOfPoints="441" NumberOfCells="800">
<Points>
<DataArray  type="Float64"  NumberOfComponents="3"  format="ascii">-2 -2 0  -1.8 -2 0  -1.6 -2 0  -1.4 -2 0  -1.2 -2 0  -1 -2 0  -0.8 -2 0  -0.6000000000000001 -2 0  -0.3999999999999999 -2 0  -0.2 -2 0  0 -2 0  0.2000000000000002 -2 0  0.3999999999999999 -2 0  0.6000000000000001 -2 0  0.7999999999999998 -2 0  1 -2 0  1.2 -2 0  1.4 -2 0  1.6 -2 0  1.8 -2 0  2 -2 0  -2 -1.8 0  -1.8 -1.8 0  -1.6 -1.8 0  -1.4 -1.8 0  -1.2 -1.8 0  -1 -1.8 0  -0.8 -1.8 0  -0.6000000000000001 -1.8 0  -0.3999999999999999 -1.8 0  -0.2 -1.8 0  0 -1.8 0  0.2000000000000002 -1.8 0  0.3999999999999999 -1.8 0  0.6000000000000001 -1.8 0  0.7999999999999998 -1.8 0  1 -1.8 0  1.2 -1.8 0  1.4 -1.8 0  1.6 -1.8 0  1.8 -1.8 0  2 -1.8 0  -2 -1.6 0  -1.8 -1.6 0  -1.6 -1.6 0  -1.4 -1.6 0  -1.2 -1.6 0  -1 -1.6 0  -0.8 -1.6 0  -0.6000000000000001 -1.6 0  -0.3999999999999999 -1.6 0  -0.2 -1.6 0  0 -1.6 0  0.2000000000000002 -1.6 0  0.3999999999999999 -1.6 0  0.6000000000000001 -1.6 0  0.7999999999999998 -1.6 0  1 -1.6 0  1.2 -1.6 0  1.4 -1.6 0  1.6 -1.6 0  1.8 -1.6 0  2 -1.6 0  -2 -1.4 0  -1.8 -1.4 0  -1.6 -1.4 0  -1.4 -1.4 0  -1.2 -1.4 0  -1 -1.4 0  -0.8 -1.4 0  -0.6000000000000001 -1.4 0  -0.3999999999999999 -1.4 0  -0.2 -1.4 0  0 -1.4 0  0.2000000000000002 -1.4 0  0.3999999999999999 -1.4 0  0.6000000000000001 -1.4 0  0.7999999999999998 -1.4 0  1 -1.4 0  1.2 -1.4 0  1.4 -1.4 0  1.6 -1.4 0  1.8 -1.4 0  2 -1.4 0  -2 -1.2 0  -1.8 -1.2 0  -1.6 -1.2 0  -1.4 -1.2 0  -1.2 -1.2 0  -1 -1.2 0  -0.8 -1.2 0  -0.6000000000000001 -1.2 0  -0.3999999999999999 -1.2 0  -0.2 -1.2 0  0 -1.2 0  0.2000000000000002 -1.2 0  0.3999999999999999 -1.2 0  0.6000000000000001 -1.2 0  0.7999999999999998 -1.2 0  1 -1.2 0  1.2 -1.2 0  1.4 -1.2 0  1.6 -1.2 0  1.8 -1.2 0  2 -1.2 0  -2 -1 0  -1.8 -1 0  -1.6 -1 0  -1.4 -1 0  -1.2 -1 0  -1 -1 0  -0.8 -1 0  -0.6000000000000001 -1 0  -0.3999999999999999 -1 0  -0.2 -1 0  0 -1 0  0.2000000000000002 -1 0  0.3999999999999999 -1 0  0.6000000000000001 -1 0  0.7999999999999998 -1 0  1 -1 0  1.2 -1 0  1.4 -1 0  1.6 -1 0  1.8 -1 0  2 -1 0  -2 -0.8 0  -1.8 -0.8 0  -1.6 -0.8 0  -1.4 -0.8 0  -1.2 -0.8 0  -1 -0.8 0  -0.8 -0.8 0  -0.6000000000000001 -0.8 0  -0.3999999999999999 -0.8 0  -0.2 -0.8 0  0 -0.8 0  0.2000000000000002 -0.8 0  0.3999999999999999 -0.8 0  0.6000000000000001 -0.8 0  0.7999999999999998 -0.8 0  1 -0.8 0  1.2 -0.8 0  1.4 -0.8 0  1.6 -0.8 0  1.8 -0.8 0  2 -0.8 0  -2 -0.6000000000000001 0  -1.8 -0.6000000000000001 0  -1.6 -0.6000000000000001 0  -1.4 -0.6000000000000001 0  -1.2 -0.6000000000000001 0  -1 -0.6000000000000001 0  -0.8 -0.6000000000000001 0  -0.6000000000000001 -0.6000000000000001 0  -0.3999999999999999 -0.6000000000000001 0  -0.2 -0.6000000000000001 0  0 -0.6000000000000001 0  0.2000000000000002 -0.6000000000000001 0  0.3999999999999999 -0.6000000000000001 0  0.6000000000000001 -0.6000000000000001 0  0.7999999999999998 -0.6000000000000001 0  1 -0.6000000000000001 0  1.2 -0.6000000000000001 0  1.4 -0.6000000000000001 0  1.6 -0.6000000000000001 0  1.8 -0.6000000000000001 0  2 -0.6000000000000001 0  -2 -0.3999999999999999 0  -1.8 -0.3999999999999999 0  -1.6 -0.3999999999999999 0  -1.4 -0.3999999999999999 0  -1.2 -0.3999999999999999 0  -1 -0.3999999999999999 0  -0.8 -0.3999999999999999 0  -0.6000000000000001 -0.3999999999999999 0  -0.3999999999999999 -0.3999999999999999 0  -0.2 -0.3999999999999999 0  0 -0.3999999999999999 0  0.2000000000000002 -0.3999999999999999 0  0.3999999999999999 -0.3999999999999999 0  0.6000000000000001 -0.3999999999999999 0  0.7999999999999998 -0.3999999999999999 0  1 -0.3999999999999999 0  1.2 -0.3999999999999999 0  1.4 -0.3999999999999999 0  1.6 -0.3999999999999999 0  1.8 -0.3999999999999999 0  2 -0.3999999999999999 0  -2 -0.2 0  -1.8 -0.2 0  -1.6 -0.2 0  -1.4 -0.2 0  -1.2 -0.2 0  -1 -0.2 0  -0.8 -0.2 0  -0.6000000000000001 -0.2 0  -0.3999999999999999 -0.2 0  -0.2 -0.2 0  0 -0.2 0  0.2000000000000002 -0.2 0  0.3999999999999999 -0.2 0  0.6000000000000001 -0.2 0  0.7999999999999998 -0.2 0  1 -0.2 0  1.2 -0.2 0  1.4 -0.2 0  1.6 -0.2 0  1.8 -0.2 0  2 -0.2 0  -2 0 0  -1.8 0 0  -1.6 0 0  -1.4 0 0  -1.2 0 0  -1 0 0  -0.8 0 0  -0.6000000000000001 0 0  -0.3999999999999999 0 0  -0.2 0 0  0 0 0  0.2000000000000002 0 0  0.3999999999999999 0 0  0.6000000000000001 0 0  0.7999999999999998 0 0  1 0 0  1.2 0 0  1.4 0 0  1.6 0 0  1.8 0 0  2 0 0  -2 0.2000000000000002 0  -1.8 0.2000000000000002 0  -1.6 0.2000000000000002 0  -1.4 0.2000000000000002 0  -1.2 0.2000000000000002 0  -1 0.2000000000000002 0  -0.8 0.2000000000000002 0  -0.6000000000000001 0.2000000000000002 0  -0.3999999999999999 0.2000000000000002 0  -0.2 0.2000000000000002 0  0 0.2000000000000002 0  0.2000000000000002 0.2000000000000002 0  0.3999999999999999 0.2000000000000002 0  0.6000000000000001 0.2000000000000002 0  0.7999999999999998 0.2000000000000002 0  1 0.2000000000000002 0  1.2 0.2000000000000002 0  1.4 0.2000000000000002 0  1.6 0.2000000000000002 0  1.8 0.2000000000000002 0  2 0.2000000000000002 0  -2 0.3999999999999999 0  -1.8 0.3999999999999999 0  -1.6 0.3999999999999999 0  -1.4 0.3999999999999999 0  -1.2 0.3999999999999999 0  -1 0.3999999999999999 0  -0.8 0.3999999999999999 0  -0.6000000000000001 0.3999999999999999 0  -0.3999999999999999 0.3999999999999999 0  -0.2 0.3999999999999999 0  0 0.3999999999999999 0  0.2000000000000002 0.3999999999999999 0  0.3999999999999999 0.3999999999999999 0  0.6000000000000001 0.3999999999999999 0  0.7999999999999998 0.3999999999999999 0  1 0.3999999999999999 0  1.2 0.3999999999999999 0  1.4 0.3999999999999999 0  1.6 0.3999999999999999 0  1.8 0.3999999999999999 0  2 0.3999999999999999 0  -2 0.6000000000000001 0  -1.8 0.6000000000000001 0  -1.6 0.6000000000000001 0  -1.4 0.6000000000000001 0  -1.2 0.6000000000000001 0  -1 0.6000000000000001 0  -0.8 0.6000000000000001 0  -0.6000000000000001 0.6000000000000001 0  -0.3999999999999999 0.6000000000000001 0  -0.2 0.6000000000000001 0  0 0.6000000000000001 0  0.2000000000000002 0.6000000000000001 0  0.3999999999999999 0.6000000000000001 0  0.6000000000000001 0.6000000000000001 0  0.7999999999999998 0.6000000000000001 0  1 0.6000000000000001 0  1.2 0.6000000000000001 0  1.4 0.6000000000000001 0  1.6 0.6000000000000001 0  1.8 0.6000000000000001 0  2 0.6000000000000001 0  -2 0.7999999999999998 0  -1.8 0.7999999999999998 0  -1.6 0.7999999999999998 0  -1.4 0.7999999999999998 0  -1.2 0.7999999999999998 0  -1 0.7999999999999998 0  -0.8 0.7999999999999998 0  -0.6000000000000001 0.7999999999999998 0  -0.3999999999999999 0.7999999999999998 0  -0.2 0.7999999999999998 0  0 0.7999999999999998 0  0.2000000000000002 0.7999999999999998 0  0.3999999999999999 0.7999999999999998 0  0.6000000000000001 0.7999999999999998 0  0.7999999999999998 0.7999999999999998 0  1 0.7999999999999998 0  1.2 0.7999999999999998 0  1.4 0.7999999999999998 0  1.6 0.7999999999999998 0  1.8 0.7999999999999998 0  2 0.7999999999999998 0  -2 1 0  -1.8 1 0  -1.6 1 0  -1.4 1 0  -1.2 1 0  -1 1 0  -0.8 1 0  -0.6000000000000001 1 0  -0.3999999999999999 1 0  -0.2 1 0  0 1 0  0.2000000000000002 1 0  0.3999999999999999 1 0  0.6000000000000001 1 0  0.7999999999999998 1 0  1 1 0  1.2 1 0  1.4 1 0  1.6 1 0  1.8 1 0  2 1 0  -2 1.2 0  -1.8 1.2 0  -1.6 1.2 0  -1.4 1.2 0  -1.2 1.2 0  -1 1.2 0  -0.8 1.2 0  -0.6000000000000001 1.2 0  -0.3999999999999999 1.2 0  -0.2 1.2 0  0 1.2 0  0.2000000000000002 1.2 0  0.3999999999999999 1.2 0  0.6000000000000001 1.2 0  0.7999999999999998 1.2 0  1 1.2 0  1.2 1.2 0  1.4 1.2 0  1.6 1.2 0  1.8 1.2 0  2 1.2 0  -2 1.4 0  -1.8 1.4 0  -1.6 1.4 0  -1.4 1.4 0  -1.2 1.4 0  -1 1.4 0  -0.8 1.4 0  -0.6000000000000001 1.4 0  -0.3999999999999999 1.4 0  -0.2 1.4 0  0 1.4 0  0.2000000000000002 1.4 0  0.3999999999999999 1.4 0  0.6000000000000001 1.4 0  0.7999999999999998 1.4 0  1 1.4 0  1.2 1.4 0  1.4 1.4 0  1.6 1.4 0  1.8 1.4 0  2 1.4 0  -2 1.6 0  -1.8 1.6 0  -1.6 1.6 0  -1.4 1.6 0  -1.2 1.6 0  -1 1.6 0  -0.8 1.6 0  -0.6000000000000001 1.6 0  -0.3999999999999999 1.6 0  -0.2 1.6 0  0 1.6 0  0.2000000000000002 1.6 0  0.3999999999999999 1.6 0  0.6000000000000001 1.6 0  0.7999999999999998 1.6 0  1 1.6 0  1.2 1.6 0  1.4 1.6 0  1.6 1.6 0  1.8 1.6 0  2 1.6 0  -2 1.8 0  -1.8 1.8 0  -1.6 1.8 0  -1.4 1.8 0  -1.2 1.8 0  -1 1.8 0  -0.8 1.8 0  -0.6000000000000001 1.8 0  -0.3999999999999999 1.8 0  -0.2 1.8 0  0 1.8 0  0.2000000000000002 1.8 0  0.3999999999999999 1.8 0  0.6000000000000001 1.8 0  0.7999999999999998 1.8 0  1 1.8 0  1.2 1.8 0  1.4 1.8 0  1.6 1.8 0  1.8 1.8 0  2 1.8 0  -2 2 0  -1.8 2 0  -1.6 2 0  -1.4 2 0  -1.2 2 0  -1 2 0  -0.8 2 0  -0.6000000000000001 2 0  -0.3999999999999999 2 0  -0.2 2 0  0 2 0  0.2000000000000002 2 0  0.3999999999999999 2 0  0.6000000000000001 2 0  0.7999999999999998 2 0  1 2 0  1.2 2 0  1.4 2 0  1.6 2 0  1.8 2 0  2 2 0  </DataArray>
</Points>
<Cells>
[...]
<PointData  Scalars="f_18-0"> 
<DataArray  type="Float64"  Name="f_18-0"  format="ascii">4.7637301102339738e-11  -1.0884792037795628e-10  -2.8176145250552666e-11  6.0032340383786006e-10  -4.9957095501210827e-13  -3.0790662746418360e-09  -5.0983717545886328e-09  -2.9776682902738358e-09  9.0126932485742663e-11  6.2653636047422472e-10  -3.4948714057405269e-11  -1.1090033516427128e-10  3.1848614854728951e-11  9.3967222560290053e-12  -8.6683029648775786e-12  2.0395604658034416e-12  4.3697123049312278e-13  -5.8401860665814706e-13  1.0872846730557866e-13  -1.0142462812494987e-13  -2.5394551407423415e-14  -1.0565091776983631e-10  1.1972802451959734e-11  3.0484326720493731e-10  -4.6604439855371040e-10  -1.3206088335008507e-09  2.5614448100378778e-09  9.2252652554203235e-09  9.0984255149532812e-09  2.3388634959681064e-09  -1.4336651362115677e-09  -4.7356759277874232e-10  3.2059370740996144e-10  1.3664417155851448e-11  -5.8459757146057135e-11  1.8678566903980852e-11  1.6087487841317721e-12  -3.6118496685770855e-12  1.5731148029949808e-12  -9.3868867030968398e-14  1.1039649813488806e-13  1.5221511764519408e-13  -5.8236157553301896e-11  3.1028199666414551e-10  -5.2009538332718925e-10  -7.1789707292070893e-10  3.9577881978027503e-09  1.2707862666558253e-09  -2.1464586931010571e-08  -3.7370090844318880e-08  -2.0709393380096026e-08  1.8986996033219838e-09  4.1214627693538397e-09  -7.5850961159818348e-10  -5.5933411112343905e-10  2.9426116215678445e-10  -1.7083487728428464e-11  -3.8867376651704225e-11  2.0776527978255474e-11  -4.7633100907704660e-12  -8.2281541371098444e-13  1.7782461569858748e-13  -9.0585759324740595e-13  5.7841437941870941e-10  -3.7194618485313042e-10  -8.1776434324097116e-10  4.0291475368184219e-09  -2.9981257615092096e-09  -1.9515078750233299e-08  2.8155800890553579e-08  1.2494542368349207e-07  1.2312856607616044e-07  2.5164159948587900e-08  -2.0873614798773137e-08  -3.0885759168293804e-09  4.2305281576167760e-09  -7.4445633176657833e-10  -3.9993131433445854e-10  2.8681868142739947e-10  -7.7588759558699733e-11  -1.4393786381871814e-12  1.2104772872039952e-11  -4.0614947109523675e-12  4.7066064415522789e-12  3.1086775859826178e-10  -1.4896303922705136e-09  3.7086093005773624e-09  -2.2492757061585145e-09  -1.6872013025632376e-08  4.7106564177072958e-08  3.9599614582827754e-08  -2.9377076359928489e-07  -5.4835998127536713e-07  -2.8245239246568536e-07  4.8020010613353609e-08  4.9127766694681081e-08  -1.7315671838803012e-08  -2.9171686366218001e-09  3.8184365841479497e-09  -1.2383124201608350e-09  5.0830708013578960e-11  1.4742223456081608e-10  -8.9314040246462114e-11  2.7770471536039460e-11  -1.9567075135356832e-11  -2.6763381531242282e-09  1.6059453637480671e-09  3.1060400386806655e-09  -2.0429279217136899e-08  4.3876650856350281e-08  1.1469124734637521e-08  -2.9432499930342058e-07  2.9474191455139157e-07  1.8235507774802108e-06  1.7947886870100040e-06  2.5199515324785558e-07  -3.1108581968845672e-07  9.5681885929089137e-09  4.6975841169939263e-08  -1.9460470019243839e-08  1.8490316872990016e-09  1.8248311418626469e-09  -1.2481530196190993e-09  4.8110946648667559e-10  -1.3107033482590778e-10  6.5280617497076515e-11  -6.0114937002036521e-09  9.2734328816992712e-09  -1.8160006455019423e-08  1.6127495391948626e-08  5.8008022378555845e-08  -2.9318812964352813e-07  4.4458017220180990e-07  9.2847741799461501e-07  -3.9719400898900403e-06  -8.2168028853109806e-06  -3.7968812508579520e-06  1.0355573544065228e-06  4.7234612901764116e-07  -2.9743996426419219e-07  4.5696938498505176e-08  2.1340283405309473e-08  -1.7379382213743363e-08  7.0173851702579622e-09  -2.0326979351220081e-09  4.6712006785052427e-10  -1.6552602641223271e-10  -5.4809254869837777e-09  1.2839912060954090e-08  -4.3239234632984250e-08  1.2208708419753906e-07  -2.4137560917178264e-07  1.4693125372819295e-07  1.0542887077476866e-06  -4.0741459962922561e-06  2.0301356626173560e-06  2.6972306770799927e-05  2.6482899682291752e-05  1.4357395884367762e-06  -4.2655418496046322e-06  9.9463513383772918e-07  2.1527769243010088e-07  -2.4086749055059377e-07  1.0217221204383456e-07  -2.9952121210519059e-08  6.6885013366475168e-09  -1.2103348527479143e-09  2.5579329164769888e-10  -1.8519324693087122e-09  7.5348537579343510e-09  -3.9117251037484672e-08  1.7251563181429618e-07  -6.1839835843037962e-07  1.7235071204052554e-06  -3.1827876110848616e-06  6.3281250072214019e-07  1.9356429491011507e-05  -5.1399144122036286e-05  -1.2678892007037372e-04  -4.8518168792584014e-05  2.0444121763279993e-05  1.2031145563443649e-06  -3.2931854292114720e-06  1.5016410835100743e-06  -4.4250985907489579e-07  9.6830324448481008e-08  -1.5708061618926287e-08  1.7653970863448322e-09  1.1721775717394184e-10  5.2261922298805218e-10  5.0022281844854760e-10  -1.2099967603616199e-08  9.7156234188863176e-08  -5.5359763947771673e-07  2.4873009680591661e-06  -8.9327211796725009e-06  2.4472200489520113e-05  -4.1427977026995700e-05  -2.1899946104024166e-05  4.0835914337905538e-04  3.9817848368467376e-04  -2.8898940779003254e-05  -4.3475808379497293e-05  2.2419753956121026e-05  -6.6283686489941140e-06  1.4013867476998164e-06  -2.1137665869323427e-07  1.7235579354076012e-08  1.5944553006826813e-09  -2.0691836814552203e-09  4.3340795413794369e-10  -1.3588338441109657e-09  4.2518079394555836e-09  2.2755452497176107e-09  -1.5292467010133753e-07  1.3359894643852677e-06  -7.8787188584955618e-06  3.5977782361843534e-05  -1.2992481248880772e-04  3.5556297626216960e-04  -5.6110609187244554e-04  -2.1019640323567046e-03  -5.0008115907638421e-04  3.4673898943882907e-04  -1.0212366330863700e-04  2.0331933961788206e-05  -2.7450543874012395e-06  1.4905744497931689e-07  4.1938224800210184e-08  -1.6368333443048572e-08  5.5744374762816221e-09  -9.5216541377946184e-11  -1.5511966996089556e-10  2.6002096782877066e-09  -1.7428359726870221e-08  6.7390459685448225e-08  -3.1645697311652906e-08  -1.8865077132600205e-06  1.8293991712284852e-05  -1.1190303070258363e-04  5.1606143122240918e-04  -1.9129600664231166e-03  6.3843315638504169e-03  5.8189634630417698e-03  -1.6926653228583797e-03  2.9734986591037962e-04  -3.2627960784781444e-05  2.6249637277583924e-07  8.5191263920025781e-07  -2.2349683546556585e-07  3.3524835612384983e-08  -1.8051586817890350e-09  -6.9346340631547013e-11  2.5874128690505652e-10  -9.0756087164573359e-10  -3.5395273017363289e-12  2.8057636748609795e-08  -2.3268334280086596e-07  1.0585949044395593e-06  -1.4581831553746220e-06  -2.2606200623134723e-05  2.5318180190655646e-04  -1.5703761647735920e-03  8.9856757169167866e-03  8.4477175003983648e-02  7.3167232996524346e-03  -2.6419480977019229e-04  -3.6254910844085603e-05  1.5504318724075536e-05  -2.7676000854727115e-06  2.2910156182752144e-07  2.8481576330210815e-08  -2.9106069457483879e-08  3.0424644914918312e-11  -1.8301207395337312e-11  -3.0693343287831693e-10  3.0520911394680758e-09  -1.5352590282505119e-08  2.9727270868130472e-08  2.4400819751140403e-07  -2.9866769827905107e-06  1.6876740935345436e-05  -3.9423775184880518e-05  -2.9292567581638753e-04  7.9640652086254062e-03  8.4302525890181348e-02  7.9241686814952930e-03  -1.3734986189260199e-03  2.2276469377931497e-04  -1.9950287174894779e-05  -1.3866413589513712e-06  9.8992137716718268e-07  -2.3363609758693014e-07  5.2304279069768201e-08  3.9363207059197184e-12  -4.0269256019356211e-11  2.3719046475871688e-10  -7.8051011505839163e-10  -9.6181038539453079e-10  3.2245585555377176e-08  -2.3464007751935272e-07  9.0159020942476736e-07  2.9610206681795159e-07  -3.5042109720729309e-05  3.1750341765342634e-04  -1.7774696133364364e-03  5.7296187052366804e-03  5.8158769359679847e-03  -1.6700993949433965e-03  4.5080006400013381e-04  -9.8759740529174298e-05  1.6374288052405739e-05  -1.7110427192175200e-06  -3.2186776961365346e-08  1.2631579298186801e-07  -6.5894002418902295e-12  1.6542170124026386e-11  -2.8171327215072625e-11  -2.4898648039615708e-10  2.9115812466046523e-09  -1.6304978613685623e-08  4.4053736858197332e-08  1.5623826191315318e-07  -2.8845534659779461e-06  2.1368965731734567e-05  -1.0672669254599243e-04  3.5654004090659200e-04  -4.8830637734751943e-04  -1.9843699286696682e-03  -5.0905385220286750e-04  3.1566007203846368e-04  -1.1535092207603895e-04  3.2255029578578575e-05  -7.1721022162261297e-06  1.3064811404238459e-06  -2.7810601941318024e-07  2.0151133915394992e-12  2.5076269601166848e-13  -2.8412061612895985e-11  2.3296440946102120e-10  -1.0790905210493564e-09  1.9054749619456018e-09  1.7677313813280283e-08  -2.1954241603712926e-07  1.4557182458276966e-06  -6.8755732568116010e-06  2.3131170389945737e-05  -4.4256449227970460e-05  -2.9732010542129906e-05  3.8112127147200677e-04  3.8338441179585156e-04  -2.0532487133196752e-05  -3.7203997482243934e-05  2.2053940469402727e-05  -8.1318320065650015e-06  2.4218701904173371e-06  -1.0102877147809841e-06  5.9483712561476733e-13  -3.2989148763668385e-12  1.8238330837512385e-11  -6.9347411320858290e-11  5.6189253899811701e-11  1.6174489152905315e-09  -1.6255213963122632e-08  1.0007635151987238e-07  -4.5650032214191105e-07  1.5462055172780167e-06  -3.3777238792330935e-06  1.2319416262826121e-06  2.0405482775314573e-05  -4.6538808135148827e-05  -1.2084226653361035e-04  -4.8380959418221275e-05  1.7998745884702800e-05  5.0387214484467684e-07  -2.8930652311618350e-06  1.6755055592668364e-06  -1.1255018559240557e-06  -9.5238719212286613e-14  5.5441894579138257e-13  -1.8595297527679678e-12  -6.7652204689854308e-12  1.4387769145743211e-10  -1.1829842394636688e-09  6.8506396569512558e-09  -3.0593426233352936e-08  1.0474353368284874e-07  -2.4821511344357727e-07  2.2606346969107921e-07  9.9669483874305503e-07  -4.2586508864735324e-06  1.2954088148623849e-06  2.5507961452745867e-05  2.5797521493219329e-05  1.9442494483928261e-06  -3.8132505064431861e-06  9.8488830534186283e-07  1.4558927736314838e-07  -4.3735109712621007e-07  3.1210507226655961e-13  -7.2215747079133239e-13  2.0543775290421850e-12  3.7448841620412311e-13  -5.0690965140329546e-11  3.9030909060682481e-10  -1.9603759878476011e-09  7.2696795211133652e-09  -1.9120010659265193e-08  2.5880138941936188e-08  4.2869932701740616e-08  -3.1588160157186813e-07  5.1500107520290899e-07  1.0832916436300866e-06  -3.9062178413113894e-06  -8.3882735425123581e-06  -4.0580919134981705e-06  9.1016416967300000e-07  4.6013196574736910e-07  -3.0660044696734554e-07  1.0630068112885391e-07  -9.7027946908308893e-14  -1.1804385270096086e-13  1.6254027846355851e-12  -1.2299009162776219e-11  6.7312503456562199e-11  -2.9095204539806141e-10  9.9920368603473222e-10  -2.5642800248702387e-09  3.7682643968393662e-09  3.6546580226473470e-09  -3.9216425317207180e-08  9.4146927523588270e-08  2.0359195961265796e-08  -6.1457091124118951e-07  4.7024221481227807e-07  3.4401294712143834e-06  3.4828203587442195e-06  5.6143821729123107e-07  -5.5386015159736372e-07  2.0875653429286399e-08  1.2149993862173712e-07  </DataArray> 
</PointData> 
</Piece>
</UnstructuredGrid>
</VTKFile>