<?xml version="1.0"?>
<VTKFile type="UnstructuredGrid"  version="0.1"  >
<UnstructuredGrid>
<Piece  NumberOfPoints="441" NumberOfCells="800">
<Points>
<DataArray  type="Float64"  NumberOfComponents="3"  format="ascii">-0.5 -0.5 0  -0.45 -0.5 0  -0.4 -0.5 0  -0.35 -0.5 0  -0.3 -0.5 0  -0.25 -0.5 0  -0.2 -0.5 0  -0.15 -0.5 0  -0.09999999999999998 -0.5 0  -0.04999999999999999 -0.5 0  0 -0.5 0  0.05000000000000004 -0.5 0  0.09999999999999998 -0.5 0  0.15 -0.5 0  0.2 -0.5 0  0.25 -0.5 0  0.3 -0.5 0  0.35 -0.5 0  0.4 -0.5 0  0.45 -0.5 0  0.5 -0.5 0  -0.5 -0.45 0  -0.45 -0.45 0  -0.4 -0.45 0  -0.35 -0.45 0  -0.3 -0.45 0  -0.25 -0.45 0  -0.2 -0.45 0  -0.15 -0.45 0  -0.09999999999999998 -0.45 0  -0.04999999999999999 -0.45 0  0 -0.45 0  0.05000000000000004 -0.45 0  0.09999999999999998 -0.45 0  0.15 -0.45 0  0.2 -0.45 0  0.25 -0.45 0  0.3 -0.45 0  0.35 -0.45 0  0.4 -0.45 0  0.45 -0.45 0  0.5 -0.45 0  -0.5 -0.4 0  -0.45 -0.4 0  -0.4 -0.4 0  -0.35 -0.4 0  -0.3 -0.4 0  -0.25 -0.4 0  -0.2 -0.4 0  -0.15 -0.4 0  -0.09999999999999998 -0.4 0  -0.04999999999999999 -0.4 0  0 -0.4 0  0.05000000000000004 -0.4 0  0.09999999999999998 -0.4 0  0.15 -0.4 0  0.2 -0.4 0  0.25 -0.4 0  0.3 -0.4 0  0.35 -0.4 0  0.4 -0.4 0  0.45 -0.4 0  0.5 -0.4 0  -0.5 -0.35 0  -0.45 -0.35 0  -0.4 -0.35 0  -0.35 -0.35 0  -0.3 -0.35 0  -0.25 -0.35 0  -0.2 -0.35 0  -0.15 -0.35 0  -0.09999999999999998 -0.35 0  -0.04999999999999999 -0.35 0  0 -0.35 0  0.05000000000000004 -0.35 0  0.09999999999999998 -0.35 0  0.15 -0.35 0  0.2 -0.35 0  0.25 -0.35 0  0.3 -0.35 0  0.35 -0.35 0  0.4 -0.35 0  0.45 -0.35 0  0.5 -0.35 0  -0.5 -0.3 0  -0.45 -0.3 0  -0.4 -0.3 0  -0.35 -0.3 0  -0.3 -0.3 0  -0.25 -0.3 0  -0.2 -0.3 0  -0.15 -0.3 0  -0.09999999999999998 -0.3 0  -0.04999999999999999 -0.3 0  0 -0.3 0  0.05000000000000004 -0.3 0  0.09999999999999998 -0.3 0  0.15 -0.3 0  0.2 -0.3 0  0.25 -0.3 0  0.3 -0.3 0  0.35 -0.3 0  0.4 -0.3 0  0.45 -0.3 0  0.5 -0.3 0  -0.5 -0.25 0  -0.45 -0.25 0  -0.4 -0.25 0  -0.35 -0.25 0  -0.3 -0.25 0  -0.25 -0.25 0  -0.2 -0.25 0  -0.15 -0.25 0  -0.09999999999999998 -0.25 0  -0.04999999999999999 -0.25 0  0 -0.25 0  0.05000000000000004 -0.25 0  0.09999999999999998 -0.25 0  0.15 -0.25 0  0.2 -0.25 0  0.25 -0.25 0  0.3 -0.25 0  0.35 -0.25 0  0.4 -0.25 0  0.45 -0.25 0  0.5 -0.25 0  -0.5 -0.2 0  -0.45 -0.2 0  -0.4 -0.2 0  -0.35 -0.2 0  -0.3 -0.2 0  -0.25 -0.2 0  -0.2 -0.2 0  -0.15 -0.2 0  -0.09999999999999998 -0.2 0  -0.04999999999999999 -0.2 0  0 -0.2 0  0.05000000000000004 -0.2 0  0.09999999999999998 -0.2 0  0.15 -0.2 0  0.2 -0.2 0  0.25 -0.2 0  0.3 -0.2 0  0.35 -0.2 0  0.4 -0.2 0  0.45 -0.2 0  0.5 -0.2 0  -0.5 -0.15 0  -0.45 -0.15 0  -0.4 -0.15 0  -0.35 -0.15 0  -0.3 -0.15 0  -0.25 -0.15 0  -0.2 -0.15 0  -0.15 -0.15 0  -0.09999999999999998 -0.15 0  -0.04999999999999999 -0.15 0  0 -0.15 0  0.05000000000000004 -0.15 0  0.09999999999999998 -0.15 0  0.15 -0.15 0  0.2 -0.15 0  0.25 -0.15 0  0.3 -0.15 0  0.35 -0.15 0  0.4 -0.15 0  0.45 -0.15 0  0.5 -0.15 0  -0.5 -0.09999999999999998 0  -0.45 -0.09999999999999998 0  -0.4 -0.09999999999999998 0  -0.35 -0.09999999999999998 0  -0.3 -0.09999999999999998 0  -0.25 -0.09999999999999998 0  -0.2 -0.09999999999999998 0  -0.15 -0.09999999999999998 0  -0.09999999999999998 -0.09999999999999998 0  -0.04999999999999999 -0.09999999999999998 0  0 -0.09999999999999998 0  0.05000000000000004 -0.09999999999999998 0  0.09999999999999998 -0.09999999999999998 0  0.15 -0.09999999999999998 0  0.2 -0.09999999999999998 0  0.25 -0.09999999999999998 0  0.3 -0.09999999999999998 0  0.35 -0.09999999999999998 0  0.4 -0.09999999999999998 0  0.45 -0.09999999999999998 0  0.5 -0.09999999999999998 0  -0.5 -0.04999999999999999 0  -0.45 -0.04999999999999999 0  -0.4 -0.04999999999999999 0  -0.35 -0.04999999999999999 0  -0.3 -0.04999999999999999 0  -0.25 -0.04999999999999999 0  -0.2 -0.04999999999999999 0  -0.15 -0.04999999999999999 0  -0.09999999999999998 -0.04999999999999999 0  -0.04999999999999999 -0.04999999999999999 0  0 -0.04999999999999999 0  0.05000000000000004 -0.04999999999999999 0  0.09999999999999998 -0.04999999999999999 0  0.15 -0.04999999999999999 0  0.2 -0.04999999999999999 0  0.25 -0.04999999999999999 0  0.3 -0.04999999999999999 0  0.35 -0.04999999999999999 0  0.4 -0.04999999999999999 0  0.45 -0.04999999999999999 0  0.5 -0.04999999999999999 0  -0.5 0 0  -0.45 0 0  -0.4 0 0  -0.35 0 0  -0.3 0 0  -0.25 0 0  -0.2 0 0  -0.15 0 0  -0.09999999999999998 0 0  -0.04999999999999999 0 0  0 0 0  0.05000000000000004 0 0  0.09999999999999998 0 0  0.15 0 0  0.2 0 0  0.25 0 0  0.3 0 0  0.35 0 0  0.4 0 0  0.45 0 0  0.5 0 0  -0.5 0.05000000000000004 0  -0.45 0.05000000000000004 0  -0.4 0.05000000000000004 0  -0.35 0.05000000000000004 0  -0.3 0.05000000000000004 0  -0.25 0.05000000000000004 0  -0.2 0.05000000000000004 0  -0.15 0.05000000000000004 0  -0.09999999999999998 0.05000000000000004 0  -0.04999999999999999 0.05000000000000004 0  0 0.05000000000000004 0  0.05000000000000004 0.05000000000000004 0  0.09999999999999998 0.05000000000000004 0  0.15 0.05000000000000004 0  0.2 0.05000000000000004 0  0.25 0.05000000000000004 0  0.3 0.05000000000000004 0  0.35 0.05000000000000004 0  0.4 0.05000000000000004 0  0.45 0.05000000000000004 0  0.5 0.05000000000000004 0  -0.5 0.09999999999999998 0  -0.45 0.09999999999999998 0  -0.4 0.09999999999999998 0  -0.35 0.09999999999999998 0  -0.3 0.09999999999999998 0  -0.25 0.09999999999999998 0  -0.2 0.09999999999999998 0  -0.15 0.09999999999999998 0  -0.09999999999999998 0.09999999999999998 0  -0.04999999999999999 0.09999999999999998 0  0 0.09999999999999998 0  0.05000000000000004 0.09999999999999998 0  0.09999999999999998 0.09999999999999998 0  0.15 0.09999999999999998 0  0.2 0.09999999999999998 0  0.25 0.09999999999999998 0  0.3 0.09999999999999998 0  0.35 0.09999999999999998 0  0.4 0.09999999999999998 0  0.45 0.09999999999999998 0  0.5 0.09999999999999998 0  -0.5 0.15 0  -0.45 0.15 0  -0.4 0.15 0  -0.35 0.15 0  -0.3 0.15 0  -0.25 0.15 0  -0.2 0.15 0  -0.15 0.15 0  -0.09999999999999998 0.15 0  -0.04999999999999999 0.15 0  0 0.15 0  0.05000000000000004 0.15 0  0.09999999999999998 0.15 0  0.15 0.15 0  0.2 0.15 0  0.25 0.15 0  0.3 0.15 0  0.35 0.15 0  0.4 0.15 0  0.45 0.15 0  0.5 0.15 0  -0.5 0.2 0  -0.45 0.2 0  -0.4 0.2 0  -0.35 0.2 0  -0.3 0.2 0  -0.25 0.2 0  -0.2 0.2 0  -0.15 0.2 0  -0.09999999999999998 0.2 0  -0.04999999999999999 0.2 0  0 0.2 0  0.05000000000000004 0.2 0  0.09999999999999998 0.2 0  0.15 0.2 0  0.2 0.2 0  0.25 0.2 0  0.3 0.2 0  0.35 0.2 0  0.4 0.2 0  0.45 0.2 0  0.5 0.2 0  -0.5 0.25 0  -0.45 0.25 0  -0.4 0.25 0  -0.35 0.25 0  -0.3 0.25 0  -0.25 0.25 0  -0.2 0.25 0  -0.15 0.25 0  -0.09999999999999998 0.25 0  -0.04999999999999999 0.25 0  0 0.25 0  0.05000000000000004 0.25 0  0.09999999999999998 0.25 0  0.15 0.25 0  0.2 0.25 0  0.25 0.25 0  0.3 0.25 0  0.35 0.25 0  0.4 0.25 0  0.45 0.25 0  0.5 0.25 0  -0.5 0.3 0  -0.45 0.3 0  -0.4 0.3 0  -0.35 0.3 0  -0.3 0.3 0  -0.25 0.3 0  -0.2 0.3 0  -0.15 0.3 0  -0.09999999999999998 0.3 0  -0.04999999999999999 0.3 0  0 0.3 0  0.05000000000000004 0.3 0  0.09999999999999998 0.3 0  0.15 0.3 0  0.2 0.3 0  0.25 0.3 0  0.3 0.3 0  0.35 0.3 0  0.4 0.3 0  0.45 0.3 0  0.5 0.3 0  -0.5 0.35 0  -0.45 0.35 0  -0.4 0.35 0  -0.35 0.35 0  -0.3 0.35 0  -0.25 0.35 0  -0.2 0.35 0  -0.15 0.35 0  -0.09999999999999998 0.35 0  -0.04999999999999999 0.35 0  0 0.35 0  0.05000000000000004 0.35 0  0.09999999999999998 0.35 0  0.15 0.35 0  0.2 0.35 0  0.25 0.35 0  0.3 0.35 0  0.35 0.35 0  0.4 0.35 0  0.45 0.35 0  0.5 0.35 0  -0.5 0.4 0  -0.45 0.4 0  -0.4 0.4 0  -0.35 0.4 0  -0.3 0.4 0  -0.25 0.4 0  -0.2 0.4 0  -0.15 0.4 0  -0.09999999999999998 0.4 0  -0.04999999999999999 0.4 0  0 0.4 0  0.05000000000000004 0.4 0  0.09999999999999998 0.4 0  0.15 0.4 0  0.2 0.4 0  0.25 0.4 0  0.3 0.4 0  0.35 0.4 0  0.4 0.4 0  0.45 0.4 0  0.5 0.4 0  -0.5 0.45 0  -0.45 0.45 0  -0.4 0.45 0  -0.35 0.45 0  -0.3 0.45 0  -0.25 0.45 0  -0.2 0.45 0  -0.15 0.45 0  -0.09999999999999998 0.45 0  -0.04999999999999999 0.45 0  0 0.45 0  0.05000000000000004 0.45 0  0.09999999999999998 0.45 0  0.15 0.45 0  0.2 0.45 0  0.25 0.45 0  0.3 0.45 0  0.35 0.45 0  0.4 0.45 0  0.45 0.45 0  0.5 0.45 0  -0.5 0.5 0  -0.45 0.5 0  -0.4 0.5 0  -0.35 0.5 0  -0.3 0.5 0  -0.25 0.5 0  -0.2 0.5 0  -0.15 0.5 0  -0.09999999999999998 0.5 0  -0.04999999999999999 0.5 0  0 0.5 0  0.05000000000000004 0.5 0  0.09999999999999998 0.5 0  0.15 0.5 0  0.2 0.5 0  0.25 0.5 0  0.3 0.5 0  0.35 0.5 0  0.4 0.5 0  0.45 0.5 0  0.5 0.5 0  </DataArray>
</Points>
<Cells>
[...]
<PointData  Scalars="f_18-0"> 
<DataArray  type="Float64"  Name="f_18-0"  format="ascii">7.2291304206747308e-16  -1.3921267077547629e-16  -2.2771813059390259e-15  1.5480876532653080e-15  1.0432541022944398e-14  -1.1210909267153688e-15  -3.6573089715622612e-14  -3.4345900786460919e-14  5.0680113666580034e-14  1.4972433880058954e-13  1.5675926920368026e-13  7.4009062291824410e-14  -3.6512493748002482e-15  -2.0872897530780156e-14  -5.0330046011485155e-15  3.6349465128037602e-15  1.1774925836168348e-15  -7.6371871964105492e-16  -1.2826516653708972e-16  1.7269529563501522e-16  -2.9537314089523926e-17  -4.1334441485145169e-16  -1.1694339921959306e-15  2.3630905322235534e-15  3.7644742452644453e-15  -1.2481496571289123e-14  -1.9030936720529711e-14  3.5444552033639622e-14  9.1994770190255410e-14  4.0285551903485371e-15  -2.1367945176905788e-13  -3.3917296940222101e-13  -2.4300848313875149e-13  -5.5636597873112459e-14  3.9992752124996151e-14  2.6973577411831343e-14  -3.2468635420092021e-15  -5.7303975314380680e-15  7.6038767084852684e-16  1.0063159934896135e-15  -3.2564244821124799e-16  -1.1364832128270180e-16  -2.0682880341094035e-15  3.0809703150351891e-15  1.4040256196194234e-15  -1.5757065589909256e-14  4.0084890704505997e-15  7.4147074729303966e-14  7.7941385906651473e-15  -2.5563477309923334e-13  -2.6486650530502518e-13  3.4584390816964493e-13  1.0706442732954673e-12  1.1143934611406040e-12  5.0770327000971763e-13  -4.1147139128436070e-14  -1.4559433425850116e-13  -2.7101637501055159e-14  2.6729851821885300e-14  5.3304273840807568e-15  -5.5809186872713580e-15  -8.8419042952449051e-19  1.0175607108407328e-15  5.8589096095559183e-15  4.0282311408206650e-16  -1.6638242929751412e-14  1.9684173056925453e-14  6.3305735629212322e-14  -1.3696508324840963e-13  -2.8813064155093835e-13  4.0622928710241024e-13  1.2566997700179519e-12  1.4615417641518256e-13  -2.8163571353941237e-12  -4.5131357242221900e-12  -3.1679310365940300e-12  -6.5232863061739689e-13  5.5270104742183399e-13  3.2202723122391085e-13  -6.4294732209193281e-14  -6.5321035400204942e-14  1.7159466089567612e-14  9.2281227764634159e-15  -5.3393335925603570e-15  3.1083098571218803e-15  -1.8495353057712512e-14  2.5830701012318459e-14  4.9420857354234994e-14  -1.9975805642304134e-13  -5.1055275686471099e-14  1.0190752534974840e-12  3.5830345784829997e-13  -3.5147547543506607e-12  -4.0544162530827574e-12  4.6560293346748784e-12  1.5186076188334851e-11  1.5681761738642101e-11  6.8614291488935301e-12  -8.0124980386903738e-13  -1.9973012506169559e-12  -2.4990953277284832e-13  3.7934383697171605e-13  2.7556712980275666e-14  -7.4162459049487354e-14  1.2567669402118310e-14  -3.5267736990435965e-14  2.3860727077551237e-14  5.1908087096797064e-14  -2.2149463819355994e-13  9.5785308547678712e-14  1.0209391895749434e-12  -1.4596678201494379e-12  -4.5341668325194442e-12  4.7609633415276238e-12  1.8348071687723627e-11  3.4193714989857326e-12  -3.9807454585309124e-11  -6.4272786344598771e-11  -4.4129814618987146e-11  -8.0672671113846905e-12  8.1145661145483839e-12  4.0404853045101631e-12  -1.1827006767276281e-12  -7.4067301055951712e-13  3.1857386992348705e-13  5.9744917931257289e-14  1.0890710767436023e-14  7.4932301058914680e-14  -2.1926557969496616e-13  9.8047597407913089e-14  1.0075064417772489e-12  -2.2303109756026013e-12  -2.2785459340619727e-12  1.3574381754090640e-11  8.9375293273285892e-12  -4.8136716035435634e-11  -6.2475995882343293e-11  6.2870880782772984e-11  2.1686686741492541e-10  2.2156833705530887e-10  9.2763164075273063e-11  -1.4497238512650694e-11  -2.7350515646760237e-11  -1.5549087594975133e-12  5.2219673807639180e-12  -3.2423366229516174e-13  -8.5924991437744498e-13  1.6960538597751538e-13  -1.7469774717473477e-13  -5.5145062178391967e-14  1.1214984063277468e-12  -2.3273930458811260e-12  -1.4579107776329414e-12  1.4984507713417510e-11  -1.2220836296596939e-11  -6.9825420855450685e-11  5.0575946872045442e-11  2.6840891538396037e-10  6.9458061565907962e-11  -5.6468227381502496e-10  -9.1590390994855118e-10  -6.1333686666132481e-10  -9.7236067516262952e-11  1.1889513645445490e-10  4.8967100171698358e-11  -2.0414341697521873e-11  -7.0934624362937265e-12  5.1032721703449716e-12  -3.7606431923712072e-14  -3.2071997119375270e-13  1.1681791974893840e-12  -1.6391187090149304e-12  -2.5838955710669042e-12  1.5769187654794635e-11  -1.8453981202440754e-11  -5.3198378437683824e-11  1.6998018306166401e-10  1.8767438416120115e-10  -6.5026514712959081e-10  -9.6752299298626063e-10  8.4863051784504255e-10  3.1041696890709518e-09  3.1246600529910250e-09  1.2482037689399543e-09  -2.5093581156171804e-10  -3.7196157715988884e-10  9.1042195411929360e-12  6.7814024939079996e-11  -1.4917311071585716e-11  -7.1150713963411430e-13  7.0418724016007812e-13  9.4687935025968037e-14  -4.9112797367477858e-12  1.5087445675607690e-11  -1.2510930877917704e-11  -5.7210966548249911e-11  1.9171444412916814e-10  -2.7110523472649986e-11  -1.0439689142245714e-09  4.1930470641828601e-10  3.9382064036308215e-09  1.3182379058363514e-09  -8.0545975031048232e-09  -1.3043046020899379e-08  -8.4962416576102458e-09  -1.1355634127596150e-09  1.7463319396448509e-09  5.5625994238725932e-10  -3.3605450467773075e-10  -3.6891921655872030e-11  -5.8248953950683176e-13  1.7400501028556907e-12  -4.9880572016354363e-12  7.7772317177218431e-12  6.9658683883713584e-12  -7.5776818084169098e-11  1.7969051518425463e-10  -1.3260361894666949e-11  -9.7968376217826731e-10  1.8776463198762697e-09  3.6262476165912765e-09  -8.5739730681695764e-09  -1.5129902578598491e-08  1.1509254917231164e-08  4.4556276762436499e-08  4.3889178646613716e-08  1.6762548985547243e-08  -4.2355057069816817e-09  -5.0089645385942074e-09  6.5672150118458100e-10  7.7547678962841709e-10  1.0082283389362425e-12  -1.4040418813195357e-13  -4.7199325730857045e-12  2.4317070041353012e-11  -6.8105667630448200e-11  8.4152952962885614e-11  1.8084200046348135e-10  -1.0989657887753618e-09  1.8439673104600489e-09  1.9959555694487037e-09  -1.4819062456715197e-08  4.3639874941978753e-10  5.8069374694564478e-08  2.4231744332242787e-08  -1.1605354071754199e-07  -1.8495397992261595e-07  -1.1672976693027903e-07  -1.1773339692679926e-08  2.7348227105965126e-08  6.3754435849188373e-09  -4.7037143600419423e-09  2.1660089139506823e-12  -3.6748616031510869e-12  7.0693643874835878e-12  3.0912808425472809e-13  -7.6074971494142985e-11  3.6113978351430212e-10  -9.0948357064702536e-10  7.3690567395983512e-10  3.6555870369916759e-09  -1.4606120715370429e-08  1.4737766496517134e-08  6.6039036175661886e-08  -1.0705737592637798e-07  -2.4113505223268207e-07  1.6065476966621123e-07  6.5127286831493941e-07  6.4453677042091535e-07  2.9917223413229300e-07  2.0894844104649372e-08  5.8947062086408724e-09  5.2640135800411341e-08  1.2970440098793496e-12  -3.9754100125708192e-12  1.5915739036442270e-11  -5.0090364157747138e-11  9.7677776629664786e-11  4.0587398963337226e-11  -1.2352944422063150e-09  5.3220741626244190e-09  -1.1567513290190414e-08  2.8080490177419849e-09  6.2405519740918564e-08  -1.8925393496786416e-07  -9.8353638731208291e-08  8.6403264418644301e-07  5.2199056641198541e-07  -1.2958938221835359e-06  -1.1382915479705305e-06  1.4265000574153948e-06  3.7407000989170027e-06  3.4071238756526040e-06  1.4390633067845592e-06  -1.4903707509233557e-13  -9.2481586449966523e-13  9.0695903985583439e-12  -5.3857589183300593e-11  2.3328978137272487e-10  -7.3392482547752514e-10  1.3447031840380861e-09  1.2383823360110664e-09  -2.0136936713557350e-08  7.6894742376150714e-08  -1.3366467684194073e-07  -5.2689399826293816e-08  1.1529107450860612e-06  -9.8042008136464564e-07  -2.0646123504022079e-06  1.2770737956458687e-05  4.5477029653383432e-05  8.3293929267232666e-05  9.8828244220692385e-05  7.2596662932997974e-05  3.4276180481600194e-05  -4.1149394940300476e-13  9.2875074629538851e-13  -1.6222589096467134e-12  -9.9309535996408189e-12  1.2470422285750336e-10  -7.8329379991251972e-10  3.4676713475379787e-09  -1.0844915137372174e-08  1.8171583329429802e-08  3.0420504218521536e-08  -3.2774046751841910e-07  1.0463174194249526e-06  -1.4041586590701145e-06  -6.0503658425761551e-07  4.1046020412553829e-05  1.6620382594704960e-04  5.0519754227681707e-04  1.0451043633934434e-03  1.3326967548898153e-03  1.0449275575886122e-03  5.0382456390640708e-04  -5.7335107409057735e-15  3.8327968831565499e-13  -2.8477298463353960e-12  1.3439963701879667e-11  -3.2220607636336844e-11  -1.0145323613993669e-10  1.7045362976749887e-09  -1.1470848745401228e-08  5.2256429817847351e-08  -1.6194533340455906e-07  2.3555708679924487e-07  7.8375472662206407e-07  -2.9236534926283107e-06  4.4139114065093449e-05  2.5253243567700410e-04  1.3213207292059473e-03  4.4537852325725333e-03  8.6239384879349401e-03  1.0407628221992125e-02  8.0741567615171869e-03  3.8141511869779492e-03  9.1536759658473434e-14  -2.0597144294216029e-13  2.4238433060889630e-13  3.7104730673392107e-12  -3.7708894130326325e-11  2.0434503784761494e-10  -6.1132935430593396e-10  -7.0951829225685692e-10  2.2835560260226027e-08  -1.6955431482712581e-07  8.1478276746248123e-07  -2.0425148326293115e-06  1.2616133360666810e-05  1.6795124447610305e-04  1.3018067806460389e-03  7.1146712183462520e-03  2.0051185057684207e-02  3.3885252991703287e-02  3.8933862925865211e-02  3.0898315306499585e-02  1.5268093928570812e-02  -9.1338454448944243e-15  -6.1258015521259703e-14  5.8558943814727187e-13  -3.0804626756506518e-12  7.7083947278736868e-12  2.9123790764442907e-11  -4.7186450732105729e-10  3.0429608481774302e-09  -1.1280107101032138e-08  4.8450310679856103e-09  3.2647660896086705e-07  -1.0988877229826066e-06  4.9356468300509034e-05  5.0023414527366962e-04  4.4581740367029892e-03  2.0134550593793463e-02  4.7634721564157483e-02  7.3426854676618747e-02  8.2783772609141312e-02  6.7711632804425062e-02  3.5095182016875323e-02  -1.6829445998911080e-14  5.1283097710067914e-14  -1.4568441050565945e-13  -2.6205965660171332e-13  6.4948525470195913e-12  -4.4808392404722885e-11  1.6801047470287483e-10  -5.5164039531863935e-12  -5.1472573510040391e-09  4.4371959274012887e-08  -1.3189279676997468e-07  3.3963407623167470e-06  7.7758903200582139e-05  1.0308765005588826e-03  8.6501709029583908e-03  3.3843576710164906e-02  7.3281551575717696e-02  1.1059594577012313e-01  1.2590347497739990e-01  1.0415617743579911e-01  5.4643129748560268e-02  8.6924792767473708e-15  -5.5808990887622808e-16  -7.4251606298271792e-14  6.3481752044257955e-13  -2.9189343226627838e-12  4.4175784770041598e-12  5.2963316622632914e-11  -5.6787479913942745e-10  3.0380381331630544e-09  -5.9209091254120816e-09  5.7517307363744998e-08  4.4160799702684086e-06  9.2455592643482271e-05  1.3809017334733638e-03  1.0509509583569070e-02  3.9520433213419179e-02  8.4444208303604953e-02  1.2692046114378680e-01  1.4483999455473914e-01  1.1959765822818137e-01  6.3353877468958195e-02  </DataArray> 
</PointData> 
</Piece>
</UnstructuredGrid>
</VTKFile>