<?xml version="1.0"?>
<VTKFile type="UnstructuredGrid"  version="0.1"  >
<UnstructuredGrid>
<Piece  NumberOfPoints="961" NumberOfCells="1800">
<Points>
<DataArray  type="Float64"  NumberOfComponents="3"  format="ascii">0 0 0  0.03333333333333333 0 0  0.06666666666666667 0 0  0.1 0 0  0.1333333333333333 0 0  0.1666666666666667 0 0  0.2 0 0  0.2333333333333333 0 0  0.2666666666666667 0 0  0.3 0 0  0.3333333333333333 0 0  0.3666666666666666 0 0  0.4 0 0  0.4333333333333333 0 0  0.4666666666666667 0 0  0.5 0 0  0.5333333333333333 0 0  0.5666666666666667 0 0  0.6 0 0  0.6333333333333333 0 0  0.6666666666666666 0 0  0.7 0 0  0.7333333333333333 0 0  0.7666666666666667 0 0  0.8 0 0  0.8333333333333334 0 0  0.8666666666666667 0 0  0.9 0 0  0.9333333333333333 0 0  0.9666666666666667 0 0  1 0 0  0 0.03333333333333333 0  0.03333333333333333 0.03333333333333333 0  0.06666666666666667 0.03333333333333333 0  0.1 0.03333333333333333 0  0.1333333333333333 0.03333333333333333 0  0.1666666666666667 0.03333333333333333 0  0.2 0.03333333333333333 0  0.2333333333333333 0.03333333333333333 0  0.2666666666666667 0.03333333333333333 0  0.3 0.03333333333333333 0  0.3333333333333333 0.03333333333333333 0  0.3666666666666666 0.03333333333333333 0  0.4 0.03333333333333333 0  0.4333333333333333 0.03333333333333333 0  0.4666666666666667 0.03333333333333333 0  0.5 0.03333333333333333 0  0.5333333333333333 0.03333333333333333 0  0.5666666666666667 0.03333333333333333 0  0.6 0.03333333333333333 0  0.6333333333333333 0.03333333333333333 0  0.6666666666666666 0.03333333333333333 0  0.7 0.03333333333333333 0  0.7333333333333333 0.03333333333333333 0  0.7666666666666667 0.03333333333333333 0  0.8 0.03333333333333333 0  0.8333333333333334 0.03333333333333333 0  0.8666666666666667 0.03333333333333333 0  0.9 0.03333333333333333 0  0.9333333333333333 0.03333333333333333 0  0.9666666666666667 0.03333333333333333 0  1 0.03333333333333333 0  0 0.06666666666666667 0  0.03333333333333333 0.06666666666666667 0  0.06666666666666667 0.06666666666666667 0  0.1 0.06666666666666667 0  0.1333333333333333 0.06666666666666667 0  0.1666666666666667 0.06666666666666667 0  0.2 0.06666666666666667 0  0.2333333333333333 0.06666666666666667 0  0.2666666666666667 0.06666666666666667 0  0.3 0.06666666666666667 0  0.3333333333333333 0.06666666666666667 0  0.3666666666666666 0.06666666666666667 0  0.4 0.06666666666666667 0  0.4333333333333333 0.06666666666666667 0  0.4666666666666667 0.06666666666666667 0  0.5 0.06666666666666667 0  0.5333333333333333 0.06666666666666667 0  0.5666666666666667 0.06666666666666667 0  0.6 0.06666666666666667 0  0.6333333333333333 0.06666666666666667 0  0.6666666666666666 0.06666666666666667 0  0.7 0.06666666666666667 0  0.7333333333333333 0.06666666666666667 0  0.7666666666666667 0.06666666666666667 0  0.8 0.06666666666666667 0  0.8333333333333334 0.06666666666666667 0  0.8666666666666667 0.06666666666666667 0  0.9 0.06666666666666667 0  0.9333333333333333 0.06666666666666667 0  0.9666666666666667 0.06666666666666667 0  1 0.06666666666666667 0  0 0.1 0  0.03333333333333333 0.1 0  0.06666666666666667 0.1 0  0.1 0.1 0  0.1333333333333333 0.1 0  0.1666666666666667 0.1 0  0.2 0.1 0  0.2333333333333333 0.1 0  0.2666666666666667 0.1 0  0.3 0.1 0  0.3333333333333333 0.1 0  0.3666666666666666 0.1 0  0.4 0.1 0  0.4333333333333333 0.1 0  0.4666666666666667 0.1 0  0.5 0.1 0  0.5333333333333333 0.1 0  0.5666666666666667 0.1 0  0.6 0.1 0  0.6333333333333333 0.1 0  0.6666666666666666 0.1 0  0.7 0.1 0  0.7333333333333333 0.1 0  0.7666666666666667 0.1 0  0.8 0.1 0  0.8333333333333334 0.1 0  0.8666666666666667 0.1 0  0.9 0.1 0  0.9333333333333333 0.1 0  0.9666666666666667 0.1 0  1 0.1 0  0 0.1333333333333333 0  0.03333333333333333 0.1333333333333333 0  0.06666666666666667 0.1333333333333333 0  0.1 0.1333333333333333 0  0.1333333333333333 0.1333333333333333 0  0.1666666666666667 0.1333333333333333 0  0.2 0.1333333333333333 0  0.2333333333333333 0.1333333333333333 0  0.2666666666666667 0.1333333333333333 0  0.3 0.1333333333333333 0  0.3333333333333333 0.1333333333333333 0  0.3666666666666666 0.1333333333333333 0  0.4 0.1333333333333333 0  0.4333333333333333 0.1333333333333333 0  0.4666666666666667 0.1333333333333333 0  0.5 0.1333333333333333 0  0.5333333333333333 0.1333333333333333 0  0.5666666666666667 0.1333333333333333 0  0.6 0.1333333333333333 0  0.6333333333333333 0.1333333333333333 0  0.6666666666666666 0.1333333333333333 0  0.7 0.1333333333333333 0  0.7333333333333333 0.1333333333333333 0  0.7666666666666667 0.1333333333333333 0  0.8 0.1333333333333333 0  0.8333333333333334 0.1333333333333333 0  0.8666666666666667 0.1333333333333333 0  0.9 0.1333333333333333 0  0.9333333333333333 0.1333333333333333 0  0.9666666666666667 0.1333333333333333 0  1 0.1333333333333333 0  0 0.1666666666666667 0  0.03333333333333333 0.1666666666666667 0  0.06666666666666667 0.1666666666666667 0  0.1 0.1666666666666667 0  0.1333333333333333 0.1666666666666667 0  0.1666666666666667 0.1666666666666667 0  0.2 0.1666666666666667 0  0.2333333333333333 0.1666666666666667 0  0.2666666666666667 0.1666666666666667 0  0.3 0.1666666666666667 0  0.3333333333333333 0.1666666666666667 0  0.3666666666666666 0.1666666666666667 0  0.4 0.1666666666666667 0  0.4333333333333333 0.1666666666666667 0  0.4666666666666667 0.1666666666666667 0  0.5 0.1666666666666667 0  0.5333333333333333 0.1666666666666667 0  0.5666666666666667 0.1666666666666667 0  0.6 0.1666666666666667 0  0.6333333333333333 0.1666666666666667 0  0.6666666666666666 0.1666666666666667 0  0.7 0.1666666666666667 0  0.7333333333333333 0.1666666666666667 0  0.7666666666666667 0.1666666666666667 0  0.8 0.1666666666666667 0  0.8333333333333334 0.1666666666666667 0  0.8666666666666667 0.1666666666666667 0  0.9 0.1666666666666667 0  0.9333333333333333 0.1666666666666667 0  0.9666666666666667 0.1666666666666667 0  1 0.1666666666666667 0  0 0.2 0  0.03333333333333333 0.2 0  0.06666666666666667 0.2 0  0.1 0.2 0  0.1333333333333333 0.2 0  0.1666666666666667 0.2 0  0.2 0.2 0  0.2333333333333333 0.2 0  0.2666666666666667 0.2 0  0.3 0.2 0  0.3333333333333333 0.2 0  0.3666666666666666 0.2 0  0.4 0.2 0  0.4333333333333333 0.2 0  0.4666666666666667 0.2 0  0.5 0.2 0  0.5333333333333333 0.2 0  0.5666666666666667 0.2 0  0.6 0.2 0  0.6333333333333333 0.2 0  0.6666666666666666 0.2 0  0.7 0.2 0  0.7333333333333333 0.2 0  0.7666666666666667 0.2 0  0.8 0.2 0  0.8333333333333334 0.2 0  0.8666666666666667 0.2 0  0.9 0.2 0  0.9333333333333333 0.2 0  0.9666666666666667 0.2 0  1 0.2 0  0 0.2333333333333333 0  0.03333333333333333 0.2333333333333333 0  0.06666666666666667 0.2333333333333333 0  0.1 0.2333333333333333 0  0.1333333333333333 0.2333333333333333 0  0.1666666666666667 0.2333333333333333 0  0.2 0.2333333333333333 0  0.2333333333333333 0.2333333333333333 0  0.2666666666666667 0.2333333333333333 0  0.3 0.2333333333333333 0  0.3333333333333333 0.2333333333333333 0  0.3666666666666666 0.2333333333333333 0  0.4 0.2333333333333333 0  0.4333333333333333 0.2333333333333333 0  0.4666666666666667 0.2333333333333333 0  0.5 0.2333333333333333 0  0.5333333333333333 0.2333333333333333 0  0.5666666666666667 0.2333333333333333 0  0.6 0.2333333333333333 0  0.6333333333333333 0.2333333333333333 0  0.6666666666666666 0.2333333333333333 0  0.7 0.2333333333333333 0  0.7333333333333333 0.2333333333333333 0  0.7666666666666667 0.2333333333333333 0  0.8 0.2333333333333333 0  0.8333333333333334 0.2333333333333333 0  0.8666666666666667 0.2333333333333333 0  0.9 0.2333333333333333 0  0.9333333333333333 0.2333333333333333 0  0.9666666666666667 0.2333333333333333 0  1 0.2333333333333333 0  0 0.2666666666666667 0  0.03333333333333333 0.2666666666666667 0  0.06666666666666667 0.2666666666666667 0  0.1 0.2666666666666667 0  0.1333333333333333 0.2666666666666667 0  0.1666666666666667 0.2666666666666667 0  0.2 0.2666666666666667 0  0.2333333333333333 0.2666666666666667 0  0.2666666666666667 0.2666666666666667 0  0.3 0.2666666666666667 0  0.3333333333333333 0.2666666666666667 0  0.3666666666666666 0.2666666666666667 0  0.4 0.2666666666666667 0  0.4333333333333333 0.2666666666666667 0  0.4666666666666667 0.2666666666666667 0  0.5 0.2666666666666667 0  0.5333333333333333 0.2666666666666667 0  0.5666666666666667 0.2666666666666667 0  0.6 0.2666666666666667 0  0.6333333333333333 0.2666666666666667 0  0.6666666666666666 0.2666666666666667 0  0.7 0.2666666666666667 0  0.7333333333333333 0.2666666666666667 0  0.7666666666666667 0.2666666666666667 0  0.8 0.2666666666666667 0  0.8333333333333334 0.2666666666666667 0  0.8666666666666667 0.2666666666666667 0  0.9 0.2666666666666667 0  0.9333333333333333 0.2666666666666667 0  0.9666666666666667 0.2666666666666667 0  1 0.2666666666666667 0  0 0.3 0  0.03333333333333333 0.3 0  0.06666666666666667 0.3 0  0.1 0.3 0  0.1333333333333333 0.3 0  0.1666666666666667 0.3 0  0.2 0.3 0  0.2333333333333333 0.3 0  0.2666666666666667 0.3 0  0.3 0.3 0  0.3333333333333333 0.3 0  0.3666666666666666 0.3 0  0.4 0.3 0  0.4333333333333333 0.3 0  0.4666666666666667 0.3 0  0.5 0.3 0  0.5333333333333333 0.3 0  0.5666666666666667 0.3 0  0.6 0.3 0  0.6333333333333333 0.3 0  0.6666666666666666 0.3 0  0.7 0.3 0  0.7333333333333333 0.3 0  0.7666666666666667 0.3 0  0.8 0.3 0  0.8333333333333334 0.3 0  0.8666666666666667 0.3 0  0.9 0.3 0  0.9333333333333333 0.3 0  0.9666666666666667 0.3 0  1 0.3 0  0 0.3333333333333333 0  0.03333333333333333 0.3333333333333333 0  0.06666666666666667 0.3333333333333333 0  0.1 0.3333333333333333 0  0.1333333333333333 0.3333333333333333 0  0.1666666666666667 0.3333333333333333 0  0.2 0.3333333333333333 0  0.2333333333333333 0.3333333333333333 0  0.2666666666666667 0.3333333333333333 0  0.3 0.3333333333333333 0  0.3333333333333333 0.3333333333333333 0  0.3666666666666666 0.3333333333333333 0  0.4 0.3333333333333333 0  0.4333333333333333 0.3333333333333333 0  0.4666666666666667 0.3333333333333333 0  0.5 0.3333333333333333 0  0.5333333333333333 0.33333333333333
[...]
<PointData  Scalars="f_18-0"> 
<DataArray  type="Float64"  Name="f_18-0"  format="ascii">1.3660686428620401e-13  1.0270120181539916e-13  -3.8447409724647394e-13  -6.8389393764967362e-13  3.5871134918509383e-13  1.9337736714937848e-12  2.0391774119361422e-12  7.3972351585092483e-13  -5.2516402917753442e-14  4.9753932770012788e-13  1.6173358886919534e-12  2.4619418818488020e-12  2.7354127039812642e-12  2.4307179946370258e-12  1.7406564593448308e-12  9.9921053561882756e-13  4.5897857774488690e-13  1.6879958395358279e-13  4.9723865515219844e-14  1.1729340862826110e-14  2.2153586229505441e-15  3.3510738432481919e-16  4.0594900321063495e-17  3.9353660242387138e-18  3.0596643224622413e-19  1.9067543925935269e-20  9.0898806254608664e-22  5.0205671547084465e-23  -1.4570750673609029e-24  4.1730027766978803e-25  7.3970194326493060e-26  -2.0462658299111143e-14  -3.1421242242958620e-13  1.3108316103747305e-13  1.3226248142335396e-12  8.0858880580373587e-13  -2.1456349683710251e-12  -3.2475810068223191e-12  1.5281927418261178e-12  1.1801302488013099e-11  2.6337190104637759e-11  4.4323056280704486e-11  6.1034631647289172e-11  6.8098496968437393e-11  6.0959104282757115e-11  4.3675973597444464e-11  2.5051677092564333e-11  1.1506920311591169e-11  4.2327607664865338e-12  1.2468269154682044e-12  2.9410636073439567e-13  5.5555745627938551e-14  8.4037204074104236e-15  1.0179157670399885e-15  9.8736878821264632e-17  7.6692102511548685e-18  4.7660347451178634e-19  2.3850775732784686e-20  9.2912908139056805e-22  3.1136826624586426e-23  1.4422931315529039e-24  -5.1777620772705004e-25  -5.2004749787146018e-13  5.6938066036785687e-13  9.9027003001533862e-13  -2.2983498192390777e-12  -4.1122797262630315e-12  8.0939339932430062e-12  3.9061858367682731e-11  9.9542511467719437e-11  2.3533232930634112e-10  5.0018430323935048e-10  8.7474224868202223e-10  1.2243103465456404e-09  1.3687062893808871e-09  1.2242560865079499e-09  8.7686111345589772e-10  5.0296446918404727e-10  2.3103126554676473e-10  8.4981201804491929e-11  2.5032199234310191e-11  5.9047628370618071e-12  1.1153963417597739e-12  1.6872258751555353e-13  2.0437706674192398e-14  1.9824219865712682e-15  1.5397207304427129e-16  9.5778135545567762e-18  4.7660992586170520e-19  1.9043098209956884e-20  6.1232005513322577e-22  1.2393049631061383e-23  1.3355253930075522e-24  1.2463541381014869e-12  4.1374010088912512e-13  -3.5707163816083668e-12  2.8888600270724016e-12  3.5460722778990087e-11  1.0747036369521559e-10  3.7172168580181325e-10  1.3097236279079047e-09  3.6893323774343413e-09  8.1085573233399891e-09  1.4133335746445426e-08  1.9699793691635520e-08  2.1997076339813137e-08  1.9674573174897535e-08  1.4092409745369453e-08  8.0830990219581467e-09  3.7127057472663459e-09  1.3656289766117445e-09  4.0226066550729434e-10  9.4888544826230900e-11  1.7924562585816051e-11  2.7114885861160248e-12  3.2846103248577783e-13  3.1861531299476008e-14  2.4748720972807313e-15  1.5392361807961016e-16  7.6663395289978017e-18  3.0577908591470140e-19  9.7105298431729637e-21  2.6117029337111326e-22  4.4463402140298383e-24  8.6277611567598860e-13  -3.8564697495072721e-12  8.8330714342251092e-12  5.1799681007562151e-11  2.0203898631777069e-10  1.1474122892884759e-09  5.2244297574033523e-09  1.7846906788866931e-08  4.8145761226039179e-08  1.0434160310110230e-07  1.8161604249321376e-07  2.5334875663305741e-07  2.8299907928711900e-07  2.5311414844156853e-07  1.8128000281218059e-07  1.0397065582548682e-07  4.7753764737676894e-08  1.7564770767488422e-08  5.1738830368892721e-09  1.2204791971786067e-09  2.3055876987445492e-10  3.4879041038556131e-11  4.2254223874533077e-12  4.0990960518564124e-13  3.1842252997831798e-14  1.9806569146064317e-15  9.8648531900522292e-17  3.9330486558001674e-18  1.2577561090922538e-19  3.2032526020646256e-21  5.1602250800036480e-23  -7.4648660354414197e-12  9.2964048306638876e-12  5.7309689163510073e-11  3.1156276028869870e-10  2.3683456711194330e-09  1.2894021262071231e-08  5.3808415296844904e-08  1.8140502833359582e-07  4.9314538380087195e-07  1.0740526517127847e-06  1.8714182370298769e-06  2.6097403921928260e-06  2.9140358443046269e-06  2.6057767583467057e-06  1.8661041868713730e-06  1.0702493964306190e-06  4.9156288714277167e-07  1.8080788526115807e-07  5.3260096300724211e-08  1.2564189648877351e-08  2.3736322885633708e-09  3.5911454394692406e-10  4.3509402849208688e-11  4.2213351564406345e-12  3.2795751453901528e-13  2.0401824426798555e-14  1.0162044259623040e-15  4.0531233527560233e-17  1.2940518230472460e-18  3.2936348388952570e-20  7.5487726117181038e-22  3.0708918812594497e-12  5.2804005560619482e-11  3.1118105388473957e-10  2.9982329078558484e-09  1.9999428157240470e-08  1.0407116126823728e-07  4.4111033628895408e-07  1.5007174379370479e-06  4.0778451682338468e-06  8.8625359326037030e-06  1.5422950898654551e-05  2.1496388838738252e-05  2.3997146486065361e-05  2.1456513274812023e-05  1.5366104780448239e-05  8.8136006430052360e-06  4.0485678905257422e-06  1.4893324603745335e-06  4.3875498296095200e-07  1.0351382774338207e-07  1.9558031363361480e-08  2.9593765561232970e-09  3.5860258232620357e-10  3.4797507008486428e-11  2.7038575835956683e-12  1.6822803904557537e-13  8.3806227422223170e-15  3.3426317155306483e-16  1.0671671672276861e-17  2.7375098694061651e-19  5.4452385754669452e-21  5.3109711864739749e-11  1.9930596174430471e-10  2.3682102108786262e-09  1.9999120162607613e-08  1.2983326376145845e-07  6.8914844054729515e-07  2.9256077732079734e-06  9.9121751375718434e-06  2.6885578585895260e-05  5.8405206907337062e-05  1.0158443927778549e-04  1.4148177515498021e-04  1.5785139144386862e-04  1.4112231236879479e-04  1.0109605388214349e-04  5.8017264423719151e-05  2.6665246704426618e-05  9.8136391086246999e-06  2.8920140610175485e-06  6.8246305616377271e-07  1.2897099595145102e-07  1.9518718521709228e-08  2.3656597205638012e-09  2.2960289677328119e-10  1.7844394778938567e-11  1.1104516594326773e-12  5.5327878088885350e-14  2.2070234938861555e-15  7.0499587311602192e-17  1.8005113267885803e-18  3.6242482721397294e-20  1.1964415806525850e-10  1.1413266657340483e-09  1.2894851265507810e-08  1.0406655342083308e-07  6.8916746673232620e-07  3.6535464668303884e-06  1.5448627858389281e-05  5.2326401632426129e-05  1.4186268258995424e-04  3.0758769328724663e-04  5.3362511118111675e-04  7.4157719480343531e-04  8.2643898898144262e-04  7.3899030291447153e-04  5.3005997397503641e-04  3.0472621162276880e-04  1.4028929931886444e-04  5.1696738976345212e-05  1.5247557194727439e-05  3.6000655598459099e-06  6.8058367681134879e-07  1.0303143431410785e-07  1.2490842398452795e-08  1.2126492810001270e-09  9.4269855754041227e-11  5.8677581665574301e-12  2.9241733771410489e-13  1.1666908429797787e-14  3.7260511997569519e-16  9.5200019161194793e-18  2.0054749329232155e-19  3.3846655686892948e-10  5.2254358338432531e-09  5.3804274562890303e-08  4.4112676399022153e-07  2.9260103934464752e-06  1.5450455788231494e-05  6.5344575798046507e-05  2.2105805705734141e-04  5.9711887332725914e-04  1.2884011505602858e-03  2.2236192595125616e-03  3.0766141652416854e-03  3.4213090617591932e-03  3.0619139978846559e-03  2.2036966847660123e-03  1.2726193854543106e-03  5.8835383744160663e-04  2.1748245872095208e-04  6.4269425759100343e-05  1.5191372004035070e-05  2.8737734806381066e-06  4.3524982838936659e-07  5.2786992799871892e-08  5.1265289163644819e-09  3.9865903082999925e-10  2.4821388638677413e-11  1.2372753261698855e-12  4.9372171421262076e-14  1.5769734510674162e-15  4.0392660196724004e-17  8.1143997285083791e-19  1.2463488637167767e-09  1.7858215140899897e-08  1.8139439538954579e-07  1.5010219769473964e-06  9.9153817789859385e-06  5.2344275653174683e-05  2.2111202479000206e-04  7.4474838468715316e-04  1.9987471787326883e-03  4.2747382133870087e-03  7.3013321645724206e-03  1.0012629299345212e-02  1.1088934455255554e-02  9.9457293147119773e-03  7.2109658886319603e-03  4.2046119372789546e-03  1.9611769538024999e-03  7.2959871123637007e-04  2.1644000312710403e-04  5.1265705164735081e-05  9.7087165495743134e-06  1.4714470308708328e-06  1.7854960519363093e-07  1.7348022563475028e-08  1.3495879071989095e-09  8.4057716947639996e-11  4.1911890037280581e-12  1.6727930929727607e-13  5.3457187863769021e-15  1.3653407058613302e-16  2.7627657664834661e-18  3.6510625711598165e-09  4.8152451172587444e-08  4.9319776207995623e-07  4.0796006854983600e-06  2.6901861323515737e-05  1.4196001460342074e-04  5.9749371555429392e-04  1.9995549936181246e-03  5.3097986359648252e-03  1.1178339069420002e-02  1.8758947441549042e-02  2.5373288097802010e-02  2.7946702805676443e-02  2.5170227824109943e-02  1.8473522234758153e-02  1.0946689551932634e-02  5.1835191873523716e-03  1.9495515235741492e-03  5.8208596033216360e-04  1.3833082501609086e-04  2.6241164862880036e-05  3.9809521186921435e-06  4.8339173209455775e-07  4.6993070125164562e-08  3.6575915569010587e-09  2.2790106292057862e-10  1.1366943750768966e-11  4.5383841391568787e-13  1.4499616244134708e-14  3.7019603319744628e-16  7.9580900971403915e-18  8.1101875996077358e-09  1.0433620291136409e-07  1.0744260503041944e-06  8.8690215963390979e-06  5.8463385528035920e-05  3.0794364593784724e-04  1.2898965891052145e-03  4.2789139399319583e-03  1.1184834962562454e-02  2.3040841951178434e-02  3.7844788233562798e-02  5.0436521888051450e-02  5.5271216254070429e-02  5.0033366058957349e-02  3.7245988356549416e-02  2.2513935820035826e-02  1.0874198709453237e-02  4.1510571353803637e-03  1.2503586044172515e-03  2.9847597887783727e-04  5.6746686023456096e-05  8.6196763027894580e-06  1.0475574906878298e-06  1.0190853389532409e-07  7.9362955297965402e-09  4.9472578028489706e-10  2.4685486433008151e-11  9.8579175568059014e-13  3.1484286430469809e-14  8.1015284225702625e-16  1.5916571081997698e-17  1.4145649740312800e-08  1.8162648380315211e-07  1.8726245454393993e-06  1.5440188669315408e-05  1.0173626620737779e-04  5.3456303142460906e-04  2.2277284339775943e-03  7.3138408512714191e-03  1.8783558339461260e-02  3.7871312516815650e-02  6.1070461791144441e-02  8.0520529696332693e-02  8.7979720630676425e-02  7.9951094676793094e-02  6.0175121184858314e-02  3.7012331887705766e-02  1.8225077237132431e-02  7.0652773767673656e-03  2.1481831709475414e-03  5.1527522631500378e-04  9.8207748686021413e-05  1.4939142652374219e-05  1.8174187510642872e-06  1.7694462465086910e-07  1.3788463138293815e-08  8.5998952502239312e-10  4.2929283935363746e-11  1.7141285222365871e-12  5.4878414862561728e-14  1.4030988586903460e-15  2.4385905063419780e-17  1.9703878297486679e-08  2.5342560743362890e-07  2.6123442561915827e-06  2.1530484939411163e-05  1.4177803568963070e-04  7.4342016933738651e-04  3.0848879952876680e-03  1.0038811528416491e-02  2.5429000808339458e-02  5.0512969264047594e-02  8.0581566124864890e-02  1.0573404170525803e-01  1.1545291233076560e-01  1.0511751209560395e-01  7.9547997293459100e-02  4.9431510197064904e-02  2.4656884459280611e-02  9.6651519647763823e-03  2.9591092089465598e-03  7.1247197857087093e-04  1.3608776508376242e-04  2.0731073682492306e-05  2.5248493739731500e-06  2.4603336246238793e-07  1.9185013287614617e-08  1.1973282568877687e-09  5.9773735586997666e-11  2.3888035960451204e-12  7.6630711194798828e-14  1.8856006353193912e-15  5.5603040303042397e-17  2.1997938009234879e-08  2.8317090807128722e-07  2.9181291788862131e-06  2.4048129654626537e-05  1.5829033851760322e-04  8.2919118616594308e-04  3.4339175229333306e-03  1.1130097002210819e-02  2.8039166928553079e-02  5.5413020864608052e-02  8.8131328902072412e-02  1.1555894516274666e-01  1.2623448994136399e-01  1.1500839201655762e-01  8.7139007501503649e-02  5.4286747343078957e-02  2.7173114718915509e-02  1.0682868196358474e-02  3.2767636327618180e-03  7.9007900085055905e-04  1.5110460809738491e-04  2.3045549182178039e-05  2.8098172391698641e-06  2.7401856446982508e-07  2.1383775071907141e-08  1.3351587863316264e-09  6.6644385157025292e-11  2.6741402663367798e-12  8.4220292357645292e-14  2.2027930865423014e-15  8.9354410968271462e-17  1.9679303867861422e-08  2.5335347459978851e-07  2.6106061256244667e-06  2.1514705575943511e-05  1.4162078904849388e-04  7.4214682256432921e-04  3.0767066216003227e-03  9.9959275925570884e-03  2.5290453269505589e-02  5.0237462891332088e-02  8.0208531094843036e-02  1.0536990107568184e-01  1.1518125340407755e-01  1.0492158291686640e-01  7.9352817816873436e-02  4.9217315191305129e-02  2.4477497445204100e-02  9.5631897505212421e-03  2.9216990122762363e-03  7.0351193737121080e-04  1.3455157484363635e-04  2.0535666468879378e-05  2.5059772445522213e-06  2.4452480988323736e-07  1.9101782323734816e-08  1.1917811330803886e-09  5.9652888479696457e-11  2.3907948044138338e-12  7.2373586745993544e-14  2.7829467052229772e-15  -1.5239761121539583e-16  1.4100163653360453e-08  1.8151687230312623e-07  1.8704394389487703e-06  1.5417132119331780e-05  1.0153221569951491e-04  5.3285326563225731e-04  2.2171267207543553e-03  7.2587154929863971e-03  1.8596975766256199e-02  3.7479775830354410e-02  6.0514226956915107e-02  7.9945674314722923e-02  8.7513187638064593e-02  7.9586965914461641e-02  5.9829758136616763e-02  3.6672560674897207e-02  1.7961358631645427e-02  6.9229593504110129e-03  2.0978512439921580e-03  5.0337492783327279e-04  9.6158736863223660e-05  1.4679603519138252e-05  1.7917849220585947e-06  1.7492197475268520e-07  1.3677289285593515e-08  8.5073071861426477e-10  4.3207016860246112e-11  1.6336305851971026e-12  5.9860615578615773e-14  1.9919804349595101e-15  -5.7390248693881575e-16  8.0900940503249606e-09  1.0414472791947516e-07  1.0732336070300940e-06  8.8481210490453794e-06  5.8312120109255082e-05  3.0663536162534960e-04  1.2820319376874547e-03  4.2396847739392205e-03  1.1044613212386133e-02  2.2720155598040991e-02  3.7350411902807759e-02  4.9880312278140014e-02  5.4771396163449004e-02  4.9614077110415739e-02  3.6870118109412514e-02  2.2185808373488495e-02  1.0643356265714094e-02  4.0356906302509597e-03  1.2116292831680403e-03  2.8942748018237583e-04  5.5181149535712012e-05  8.4225691760959998e-06  1.0270921335924886e-06  1.0042236949692163e-07  7.8345887486309705e-09  4.8757859904246250e-10  2.5351250078062850e-11  7.5935334217639663e-13  7.2715128489455714e-14  -5.4425125788143922e-15  9.6446899596358556e-16  3.7170278933041542e-09  4.7850559814242420e-08  4.9314615304627861e-07  4.0666374279686445e-06  2.6819499355117147e-05  1.4129696739802460e-04  5.9342579770382006e-04  1.9808240075835115e-03  5.2419591858289608e-03  1.1008423156851141e-02  1.8467512655117251e-02  2.5008580632353564e-02  2.7582892132325534e-02  2.4845687124540917e-02  1.8193843037528634e-02  1.0726515977554158e-02  5.0445796837211253e-03  1.8862273865822632e-03  5.6189755615679445e-04  1.3362372521100928e-04  2.5429842711256425e-05  3.8780564681466572e-06  4.7195876389784943e-07  4.6348052456670557e-08  3.5627738353404075e-09  2.3091283613980021e-10  1.0916747170723051e-11  3.1826929353864310e-13  7.5230097142671187e-14  -1.6642947526135377e-14  6.2141445539689111e-15  1.3675906549021075e-09  1.7605915525016619e-08  1.8145767169958620e-07  1.4966668118068262e-06  9.8761716366997869e-06  5.2107610879901664e-05  2.1958014994983278e-04  7.3794311712046330e-04  1.9754555321451536e-03  4.2141091176424910e-03  7.1867172463574158e-03  9.8516145736981999e-03  1.0909567496588637e-02  9.7749215805351571e-03  7.0667402092504323e-03  4.1007865453253044e-03  1.9024146355327233e-03  7.0497410863355520e-04  2.0881056348353913e-04  4.9484303217268957e-05  9.4081019919794851e-06  1.4308060641471344e-06  1.7411705034023878e-07  1.7170038123439011e-08  1.2728532294243232e-09  9.7092709146819121e-11  1.2538775193742256e-12  5.9901895767254437e-13  -2.5133110416247551e-14  -8.3406248774360981e-15  8.3185839878864038e-15  4.0293104250884490e-10  5.1873404440012661e-09  5.3466947788541740e-08  4.4106750582255223e-07  2.9116856637616446e-06  1.5377143714790877e-05  6.4936179191521257e-05  2.1913147755029842e-04  5.9063705010921168e-04  1.2718214182262089e-03  2.1909102905917051e-03  3.0265715854844513e-03  3.3603511363472075e-03  3.0009581835957408e-03  2.1532370622028632e-03  1.2388208738713994e-03  5.7066011697441514e-04  2.1037178848532024e-04  6.2081782277434051e-05  1.4693510015498177e-05  2.7896273145767559e-06  4.2238310095123549e-07  5.1835748196390916e-08  5.0126102902835517e-09  3.7181193847946992e-10  3.5521690141318977e-11  -2.5561950188397904e-12  1.0379897340081695e-12  -2.0472516567099171e-13  3.4309299497395722e-14  -5.1276293955472866e-15  9.5063053026761778e-11  1.2238814200682501e-09  1.2615370628712246e-08  1.0408106329622088e-07  6.8727208077805557e-07  3.6317374134642816e-06  1.5354735145931169e-05  5.1928796017528892e-05  1.4045595418730588e-04  3.0386822398988046e-04  5.2612154486447911e-04  7.2971456509803403e-04  8.1150273231383866e-04  7.2388972955275568e-04  5.1780610724240278e-04  2.9680486497037062e-04  1.3625351088768949e-04  5.0102175661774090e-05  1.4774361894708465e-05  3.4952808348709726e-06  6.6056015451655315e-07  1.0025955417566604e-07  1.2415872313773506e-08  1.1091158077347900e-09  1.0989581060776290e-10  5.3810246824905246e-12  -1.1672935953916856e-12  7.8067246788208999e-13  -2.6260990013310385e-13  7.3861559809394946e-14  -2.9120956578428319e-14  1.7959449568537181e-11  2.3122566652523987e-10  2.3834903585983048e-09  1.9666408060006067e-08  1.2988585271026973e-07  6.8659393154693746e-07  2.9047317054902216e-06  9.8342967635274646e-06  2.6643491547970484e-05  5.7766489761751183e-05  1.0025289183771219e-04  1.3932049370296614e-04  1.5509274142487133e-04  1.3832752555858669e-04  9.8843612566496580e-05  5.6582501561219750e-05  2.5955033868499776e-05  9.5459613115463393e-06  2.8139141811339154e-06  6.6303267755050810e-07  1.2530088903284999e-07  1.9322890489003521e-08  2.2726577100416955e-09  2.0678368336929801e-10  3.2573907832864458e-11  -4.2951620609198799e-12  1.1426614549740623e-12  1.9406520214546190e-15  -1.0571557551134152e-13  5.7431563949127026e-14  -3.6374747608350198e-14  2.7168780480477557e-12  3.4980595389178487e-11  3.6059436056159445e-10  2.9755225972666587e-09  1.9654323738020325e-08  1.0391862416577281e-07  4.3980147430844949e-07  1.4898297797840152e-06  4.0395290048522183e-06  8.7670930187615548e-06  1.5231929289196310e-05  2.1188290297737696e-05  2.3602320163028249e-05  2.1057395753211535e-05  1.5049617334498744e-05  8.6179677727582435e-06  3.9539125711517285e-06  1.4522114441348742e-06  4.2665669388252347e-07  1.0080857945569149e-07  1.9359858622538766e-08  2.8825891408783818e-09  3.1169325861781980e-10  5.1638628274656170e-11  9.9805430523824344e-13  -1.5242538085378550e-12  1.0965783941141657e-12  -3.6369631284007326e-13  6.9370722109859630e-14  1.9450005795342634e-15  -1.5196044255331512e-14  3.2910609166002556e-13  4.2374490917780975e-12  4.3682683313893499e-11  3.6048001275894582e-10  2.3813399165536178e-09  1.2592886689863685e-08  5.3307567996663118e-08  1.8063838961072496e-07  4.8999516508707181e-07  1.0640119481659687e-06  1.8496980241197769e-06  2.5745308669205055e-06  2.8694184825234506e-06  2.5611614296859945e-06  1.8307392567194118e-06  1.0477821101613016e-06  4.8010107172414672e-07  1.7643437907982939e-07  5.2300085719966123e-08  1.2488138481191475e-08  2.2847761062904112e-09  3.1259222900792813e-10  5.8034449441832025e-11  6.3923995159083285e-12  -3.0421628524891590e-12  1.1315489329689528e-12  -2.8945364262254941e-14  -1.4074813808429031e-13  7.8409074459501045e-14  -2.6267998512597154e-14  8.7886625263480906e-15  3.1921232663621358e-14  4.1101822807066400e-13  4.2371741460560087e-12  3.4968059748317582e-11  2.3101911572849986e-10  1.2218102884688606e-09  5.1729505980260164e-09  1.7532848965100367e-08  4.7572031609951592e-08  1.0333538585091567e-07  1.7970750936916285e-07  2.5022377772189041e-07  2.7896955326155481e-07  2.4904383346108635e-07  1.7807356932321637e-07  1.0208302322696746e-07  4.7008904431210408e-08  1.7377906462956672e-08  5.0701809869977769e-09  1.1214976639613442e-09  2.0671614143358463e-10  5.0965816513666366e-11  6.