<?xml version="1.0"?>
<VTKFile type="UnstructuredGrid"  version="0.1"  >
<UnstructuredGrid>
<Piece  NumberOfPoints="3221" NumberOfCells="6251">
<Points>
<DataArray  type="Float64"  NumberOfComponents="3"  format="ascii">3.8 0 0  3.795276300631905 0.1894143655106492 0  3.781116946388525 0.3783578170641033 0  3.757557139655488 0.5663606114694628 0  3.724655453824466 0.7529553441577108 0  3.682493687670496 0.9376781112231157 0  3.631176661987335 1.120069662761436 0  3.570831958986452 1.299676544637541 0  3.501609605107549 1.47605222584384 0  3.423681698029192 1.648758208646721 0  3.337241978806868 1.817365118761009 0  3.242505350202192 1.981453772842092 0  3.139707342400781 2.140616220641764 0  3.029103527447105 2.294456759236814 0  2.910968883852117 2.442592916808849 0  2.78559711295334 2.584656403529493 0  2.653299908727077 2.72029402718693 0  2.514406182868066 2.84916857127739 0  2.369261247063188 2.970959633378513 0  2.218225954492202 3.085364421720254 0  2.061675802689886 3.192098507972931 0  1.9 3.290896534380867 0  1.73360049794202 3.38151287348358 0  1.562890991896324 3.463722238784357 0  1.388295892592301 3.537320244847976 0  1.210249270956401 3.602123915435101 0  1.029193778943419 3.657972138410046 0  0.8455795490339949 3.70472606629093 0  0.6598630751343355 3.74226946144639 0  0.472506077660444 3.770508985080653 0  0.2839743556284126 3.789374429288484 0  0.09473662860467753 3.798818891603101 0  -0.09473662860467705 3.798818891603101 0  -0.2839743556284122 3.789374429288484 0  -0.4725060776604436 3.770508985080653 0  -0.6598630751343352 3.74226946144639 0  -0.8455795490339945 3.70472606629093 0  -1.029193778943419 3.657972138410046 0  -1.2102492709564 3.602123915435101 0  -1.3882958925923 3.537320244847976 0  -1.562890991896323 3.463722238784358 0  -1.733600497942018 3.381512873483581 0  -1.9 3.290896534380867 0  -2.061675802689885 3.192098507972932 0  -2.2182259544922 3.085364421720255 0  -2.369261247063187 2.970959633378513 0  -2.514406182868065 2.849168571277391 0  -2.653299908727076 2.72029402718693 0  -2.78559711295334 2.584656403529493 0  -2.910968883852116 2.44259291680885 0  -3.029103527447105 2.294456759236814 0  -3.13970734240078 2.140616220641764 0  -3.242505350202191 1.981453772842093 0  -3.337241978806869 1.817365118761009 0  -3.423681698029192 1.648758208646721 0  -3.501609605107549 1.47605222584384 0  -3.570831958986451 1.299676544637542 0  -3.631176661987334 1.120069662761437 0  -3.682493687670496 0.9376781112231165 0  -3.724655453824466 0.7529553441577108 0  -3.757557139655488 0.5663606114694638 0  -3.781116946388525 0.3783578170641035 0  -3.795276300631905 0.1894143655106504 0  -3.8 4.653657836759942e-16 0  -3.795276300631905 -0.1894143655106495 0  -3.781116946388525 -0.3783578170641026 0  -3.757557139655488 -0.5663606114694629 0  -3.724655453824466 -0.75295534415771 0  -3.682493687670496 -0.9376781112231157 0  -3.631176661987335 -1.120069662761435 0  -3.570831958986452 -1.299676544637541 0  -3.501609605107549 -1.47605222584384 0  -3.423681698029192 -1.64875820864672 0  -3.337241978806869 -1.817365118761008 0  -3.242505350202192 -1.981453772842092 0  -3.139707342400781 -2.140616220641764 0  -3.029103527447106 -2.294456759236813 0  -2.910968883852117 -2.442592916808849 0  -2.785597112953341 -2.584656403529493 0  -2.653299908727077 -2.72029402718693 0  -2.514406182868067 -2.849168571277389 0  -2.369261247063188 -2.970959633378513 0  -2.218225954492204 -3.085364421720252 0  -2.061675802689885 -3.192098507972932 0  -1.899999999999999 -3.290896534380867 0  -1.73360049794202 -3.38151287348358 0  -1.562890991896324 -3.463722238784358 0  -1.388295892592304 -3.537320244847975 0  -1.210249270956403 -3.6021239154351 0  -1.029193778943418 -3.657972138410047 0  -0.8455795490339953 -3.704726066290929 0  -0.6598630751343352 -3.74226946144639 0  -0.4725060776604462 -3.770508985080653 0  -0.2839743556284139 -3.789374429288484 0  -0.09473662860467799 -3.798818891603101 0  0.09473662860467659 -3.798818891603101 0  0.2839743556284126 -3.789374429288484 0  0.4725060776604414 -3.770508985080654 0  0.6598630751343338 -3.742269461446391 0  0.8455795490339939 -3.70472606629093 0  1.029193778943419 -3.657972138410046 0  1.210249270956402 -3.6021239154351 0  1.388295892592299 -3.537320244847977 0  1.562890991896323 -3.463722238784358 0  1.733600497942019 -3.381512873483581 0  1.9 -3.290896534380867 0  2.061675802689887 -3.192098507972931 0  2.2182259544922 -3.085364421720255 0  2.369261247063187 -2.970959633378513 0  2.514406182868063 -2.849168571277392 0  2.653299908727077 -2.72029402718693 0  2.785597112953341 -2.584656403529493 0  2.910968883852116 -2.44259291680885 0  3.029103527447105 -2.294456759236815 0  3.139707342400779 -2.140616220641766 0  3.242505350202192 -1.981453772842092 0  3.337241978806868 -1.81736511876101 0  3.423681698029192 -1.648758208646721 0  3.501609605107549 -1.47605222584384 0  3.570831958986451 -1.299676544637544 0  3.631176661987334 -1.120069662761438 0  3.682493687670496 -0.9376781112231171 0  3.724655453824466 -0.7529553441577113 0  3.757557139655488 -0.5663606114694626 0  3.781116946388525 -0.3783578170641057 0  3.795276300631905 -0.1894143655106509 0  -2.775557561562891e-16 4.440892098500626e-16 0  1.292730005518549 -1.393231597934337 0  -0.9089650820886419 -1.66913978809273 0  0.9910349179113536 1.621756746288139 0  -0.9910349179113531 1.62175674628814 0  -1.9 -0.04738304180459378 0  2.030969811360066 0.2032291820762775 0  0.2982852697537555 -2.380259943517497 0  2.359223927328458e-16 2.486781296218546 0  -2.135437856882402 -1.379211996962513 0  -2.262151555014999 1.159737433781905 0  2.180412773174655 1.403243556162553 0  2.415416857256059 -0.9479812597433898 0  0.1556532731592992 -1.242083631834462 0  1.057213884222766 -0.3154037466500634 0  1.331543514538303 -2.426809344737528 0  -0.8242979376468454 -2.672308279761914 0  1.110223024625157e-16 1.486568249871433 0  1.095590716694607 2.599048265146119 0  -1.877387050372279 2.080735972995917 0  -0.9901198630484619 2.620921439359034 0  -2.777676568311451 -0.4897793226750063 0  0.7679088784629483 0.6444234416699117 0  2.127840748548167 -1.877830602318278 0  -0.963678305970453 0.5247912348278498 0  -0.6736553755797541 -0.7152147298136897 0  -1.706081757446276 -2.255130546671203 0  2.877329608409087 -0.1539270489216462 0  -2.666093104606852 0.3806645284425178 0  2.799876647123346 0.7459476385736085 0  1.682997556233562 2.041965660049523 0  -1.515930699408687 -0.8020025627712176 0  1.490394150749582 0.9936160148894964 0  1.78966109668193 -0.5171542496640607 0  0.0305935972706811 0.7432841249357166 0  -6.938893903907228e-16 -3.061342114423672 0  0.7554088135948869 -2.966677108464482 0  -1.506404100197765 1.060080369898687 0  -1.155042694730559 -0.1738861358899439 0  0.498288758590911 3.026039707153009 0  0.8363427985521557 -1.927887761215598 0  -0.3664896434934665 -2.128512198135668 0  -2.829229754587981 -1.276597080429429 0  -0.3103394657664985 3.101375893983614 0  -0.5586568920412109 1.091302235975717 0  1.366178605814844 0.3286067136150092 0  -2.939283115103045 1.016567120405128 0  -2.639737337335938 1.704923134498918 0  -2.3579094446965 -2.031452455042338 0  0.5871143132326373 2.159209026674702 0  -0.5537103323247154 2.120939001298361 0  -2.147412860788299 -0.6483529297285701 0  0.7741394201707831 -0.9419035714634143 0  2.358173467522995 2.054723728572074 0  2.828261887094994 1.393251731804238 0  2.717705841147458 -1.550864945431283 0  3.048262624398542 -0.8576481205732598 0  -2.062238995571612 0.56182847107472 0  -1.548305323341472 -1.634602236779449 0  -0.04129283307134041 -0.6359694221371053 0  1.800408492350239 2.6407142523932 0  -1.640523636404694 2.690453533544636 0  2.067160306370031 0.8080347988536571 0  1.905226740659084 -1.299588133772822 0  -3.195906444495454 0.0797009308753045 0  1.929731859532446 -2.547599800782949 0  -0.5980001975845042 0.0490881700898269 0  -1.38945297277479 -2.885228827497889 0  -0.3399330362131653 -1.547159013579239 0  0.274057699105381 -1.805270842116747 0  2.347341807900511 -0.377003275048551 0  0.4974550107964939 -0.4396865399843664 0  0.4581534995644975 1.133154182731769 0  0.551436139277494 0.1226369131399798 0  1.32499284337711 -0.8325578075352561 0  -1.518449827272067 0.3804361816144169 0  -1.553609276223015 1.620671804977614 0  -1.273287101906081 2.121598003990105 0  -0.5595976226544787 -3.179244350474185 0  1.653052955259165 1.50559967220562 0  1.305899464976363 -2.976795454477127 0  -1.056868015540404 -1.12667072433746 0  3.251792486864127 0.2436881583823702 0  -2.407696448913785 2.195353923578822 0  -0.9688651692542737 3.140983733578593 0  0.8127955740301804 -2.450566103824513 0  1.354897754480892 -1.908414685753757 0  -0.4569923894827791 0.5905796902894603 0  1.129495602017306 3.103263661915857 0  -3.157689295006909 -0.8599782508372372 0  -0.8680759691964396 -2.170845945896885 0  -2.152545204487552 -2.49458906702194 0  0.9894948192979027 1.107971765850859 0  -0.3067195635016146 -2.643437836840029 0  0.1059118711249781 1.986674773044989 0  0.4837982601235776 1.640073175100387 0  -0.4909054886541627 1.587971762405664 0  -0.4860359097619501 2.620459789266752 0  -2.052955751183701 1.613212525236004 0  0.6318615113157369 -1.436005929590713 0  2.368097538870139 -2.313078986443651 0  1.176520534042996 2.096151241934424 0  -2.370926301526895 -0.2049212868292061 0  3.285983840294513 -0.4272856688594585 0  -3.119725414309131 0.5624134789290348 0  -0.3009605614350038 -1.055398047841404 0  -1.030046163577358 1.000278794756973 0  1.636141178710457 -0.06512166258845309 0  2.408701180075335 0.4841120030689924 0  -3.242467816576344 -0.3928094844746495 0  -2.545824477774457 -0.9000683232688316 0  3.26258141133947 0.7078345824592359 0  -2.06346958924446 2.503892615333324 0  2.456010236189579 1.042425804572672 0  -1.969330645297325 -1.799930679742343 0  -2.524158362175437 -1.610685438040336 0  -1.265423342133114 -2.428299844566475 0  -0.3254925529794936 -0.2981913685170862 0  -0.992387774287371 -3.08265
[...]
<PointData  Scalars="f_29-0"> 
<DataArray  type="Float64"  Name="f_29-0"  format="ascii">9.4122727339964596e-01  9.8257307162196228e-01  1.0139610330380198e+00  1.0172672660117457e+00  9.4695088688516582e-01  9.4679395820692469e-01  1.0007384637210275e+00  9.5747462230303892e-01  9.4692006591641342e-01  1.0025927586083396e+00  9.2183126880322563e-01  9.5896206006257667e-01  9.4452795787491894e-01  9.9942759189495456e-01  9.4494486310747838e-01  1.0221540720634683e+00  9.6190566757775509e-01  9.6098476923585407e-01  9.9485993931080241e-01  9.3448460929551835e-01  9.4173165798726999e-01  9.8765169832555910e-01  9.2790026361272560e-01  1.0064968716243103e+00  9.3374057986540560e-01  9.8533235240323014e-01  9.7599643918919721e-01  9.4393892618207986e-01  9.8418277917978647e-01  1.0177826723546388e+00  9.3429830524542179e-01  1.0209197900945732e+00  9.3694979497293218e-01  9.5849868549974426e-01  9.5442985632884991e-01  9.8605189798693249e-01  9.6066944054584502e-01  9.5424477554348641e-01  9.5731390694358998e-01  1.0184756813476294e+00  9.9651222428567898e-01  9.9551746805420627e-01  9.4319821901486922e-01  9.3951747520725459e-01  9.5045539149053893e-01  9.5704933304930129e-01  9.3991638991880866e-01  9.7186735716471739e-01  9.4252649635480823e-01  1.0152184302329850e+00  9.3747510046335270e-01  9.2893639357046287e-01  1.0051522872765166e+00  9.5354503073540509e-01  1.0038383269818358e+00  9.4245852456087564e-01  9.4044270669845997e-01  9.7834131164834892e-01  9.2697321110937936e-01  9.7816122304385900e-01  1.0380951989602598e+00  9.3796728658854855e-01  9.9310812575647001e-01  9.1174262040616350e-01  9.9671050981648046e-01  9.8200068757997294e-01  1.0285699316985555e+00  9.9596365884885862e-01  9.6480271381514082e-01  9.7304496607513402e-01  9.3470314778236130e-01  9.4791070209231376e-01  9.3244015212581832e-01  9.5639991416762116e-01  9.8560246782147221e-01  9.8470604620920144e-01  9.6902859692018350e-01  9.5972304003816722e-01  9.6923856014751120e-01  9.6200839814036165e-01  9.5177693996276613e-01  1.0166456630225487e+00  1.0164999178246921e+00  9.7524422933045496e-01  9.4455397576172040e-01  9.5874798337268730e-01  9.8937052078790688e-01  1.0096136239090725e+00  1.0202617890312817e+00  1.0204254888967006e+00  9.8634374520906831e-01  9.4957995663887296e-01  9.7120327786214788e-01  9.8430528800327277e-01  9.8151074843832531e-01  9.4921569531971728e-01  9.4674569602623770e-01  9.9376178181266051e-01  9.3495407396039709e-01  9.5033377168517641e-01  9.6886692263518603e-01  9.3211542414959858e-01  1.0143164294977420e+00  9.5610653176461391e-01  9.8171888021514364e-01  9.7880011884488483e-01  9.3741448454098242e-01  9.3723263305153337e-01  9.4756397357219113e-01  9.5104825462551024e-01  9.4397843499428091e-01  9.2838391797456965e-01  9.6827725931328201e-01  9.7050632990150676e-01  9.8645208189164690e-01  9.8340489457377933e-01  9.4097639757457785e-01  9.5017954370262581e-01  9.4948261121441091e-01  9.9015866524095664e-01  9.8573838376353173e-01  9.9384544722814983e-01  1.0186592721082588e+00  9.7812316336787830e-01  1.0198509841790868e+00  9.5284031037994654e-01  1.1691097924564582e-01  3.3655763192948877e-03  3.3623631755228425e-03  3.3652881137618842e-03  3.3633989686528126e-03  3.3613735480772021e-03  1.9894961939879675e-03  4.7343325263678540e-04  3.2627233699100840e-04  2.5991256222395674e-04  2.5898067576179002e-04  2.1051431406547477e-04  2.0940621753572926e-04  2.4656437893944925e-02  3.4857265558362362e-02  1.0716816400919587e-04  5.6181848795829585e-05  1.3094290174808726e-02  7.5233189959679974e-05  9.3744764539546380e-05  9.5630013597701271e-05  8.1844816923940195e-05  4.3017302022843477e-02  7.3117324140296579e-05  3.5307135136416291e-02  4.4738961817841393e-02  9.8780625110849300e-05  4.2926675892332874e-05  1.3973456458968384e-04  8.8394899177819070e-05  1.7258196144144276e-04  6.4145881257697433e-03  4.9543353326281080e-03  3.8496136164157791e-03  6.7369927260965204e-02  2.8077168031050041e-05  4.3284360894062445e-05  4.1468137159922812e-03  3.0128942476651314e-02  2.4053696409556011e-05  1.5753150885210855e-03  1.2509702170165075e-03  -5.9563588721452080e-05  1.4142831221414817e-05  2.6266936524074726e-02  1.6505296989963152e-02  1.2238415459048024e-04  -1.9367819676060054e-04  -6.0955304534406104e-05  9.1560424834327941e-04  1.0998819528930874e-03  8.9496446672106256e-04  2.6704174498073087e-02  -2.3119247979164298e-04  1.1126612132523475e-03  4.1643161665041875e-04  -1.1608887081593461e-04  1.3674914582675250e-03  8.6450891417491876e-04  7.7999795401071659e-02  1.0995061566383725e-03  3.8685507625122839e-04  9.8425682788723053e-04  6.9165053973944740e-04  8.0785704909831042e-04  2.2776276229507914e-04  8.1664545970871402e-02  1.4230467811591559e-03  9.7722135150451403e-03  4.3907005501853799e-03  5.1477741641282936e-04  7.5357220060565291e-02  2.6504785352442141e-02  8.5062684190602283e-02  1.0362347036106634e-02  1.0344630948740094e-02  8.8835040903924951e-04  3.4539201107223767e-04  2.1704394577284124e-04  9.2118965270664090e-04  -2.5940715456389219e-03  1.1012856400457275e-02  -2.0544015753075542e-03  -3.5012435925614913e-04  -2.7600581904520401e-03  2.2179725561853931e-04  6.0203190756359052e-04  6.7086735521193125e-02  -6.9017745582859082e-03  -2.6013921873339419e-04  6.0719533525634823e-04  -5.3450431161942260e-03  1.3132889577975791e-02  1.6127172596230841e-04  2.4219753967096701e-03  6.5226373867231981e-03  7.6296966295161051e-03  1.5869568245627957e-04  1.9533035130099214e-04  1.0235002855826392e-02  -3.3482365431644840e-03  4.6281477687493957e-04  5.1054819948166468e-04  -3.2271610243793302e-03  8.5362730038222921e-04  3.5294019567895844e-02  1.5146841151468375e-02  8.2588784977028745e-03  3.6911277262213120e-04  -1.0786639279182415e-03  1.3809021202384209e-04  -3.0793865083213177e-03  -1.3314394970063920e-03  1.5455859253575948e-04  1.5704986675604086e-04  8.4357639936014734e-05  1.1081485966870338e-04  9.6269307551555161e-02  -1.1114621412869518e-02  2.3418849862507938e-04  7.6353469694734135e-05  1.0568205413123486e-04  5.1006418481038839e-02  -2.6639423661669100e-03  1.8989429707114616e-04  6.7460335103136605e-04  3.9810454117792938e-04  1.1013702513568651e-04  5.7079124812651311e-04  -8.1614051010580804e-03  1.2451359988244120e-04  1.0962368032937165e-04  4.4191450588375271e-03  1.2892267105230569e-03  2.1538860854876250e-02  4.4323889360414499e-03  4.4517101023001958e-02  1.3428573721911963e-02  -3.3071580028473055e-04  3.2603630750653377e-03  1.3135805568138727e-02  9.0081930436760089e-05  8.7533774826132303e-04  4.2187642178310135e-04  3.9373734881710746e-05  5.9367070530703629e-05  -8.7748085432124876e-05  1.3154859902030020e-02  1.6037806045816523e-03  7.9127213440006838e-02  -5.2858173530206838e-03  1.7488197971869668e-04  4.6283818574878776e-03  1.7591655618624014e-02  1.1063207452192572e-03  3.5515309791016355e-03  4.6971672891704916e-05  1.1344230462560318e-03  -4.1510009104398938e-03  3.5540450110766036e-02  1.3479643428008647e-02  8.8288115384132387e-04  2.1927377542996836e-03  3.6842813239798618e-03  5.8199526666049689e-02  5.8565828987745121e-05  -5.9763894290337143e-03  1.2884733966686579e-02  3.8445102630672691e-03  9.6170944908396762e-05  1.3234323726214832e-02  7.9604773226903559e-04  -1.2014497079496710e-04  1.2200789431434669e-02  1.2131568917773309e-02  1.0131070084028163e-01  3.9847648312035010e-03  3.0266768736105574e-03  3.3550448978647701e-02  6.3603442687337657e-03  9.4824815200117803e-05  1.0634553287580794e-03  1.4391833726334480e-02  2.8252332780413704e-02  1.0689574507912161e-02  5.6759151177164547e-05  8.1895813119592948e-03  1.5049154323164442e-04  4.1984500020257181e-04  4.8161308764063928e-03  1.5601438609574160e-03  3.1268900838210011e-03  2.7801991509558414e-02  2.2918438195851125e-03  3.3337670082686245e-04  -2.2276242604805496e-05  2.0381760781890133e-05  1.0600967856174591e-03  9.3238394817945266e-03  2.3234049901194724e-03  8.4760842657891208e-04  4.2450644671445070e-04  1.0576967326698808e-04  2.3694707008702867e-02  4.5829532831803696e-03  1.0337757882175781e-01  3.5693613414476896e-02  7.8015997171949618e-05  5.9326476164390504e-05  1.4036059369085647e-02  7.4791603854454937e-06  2.7375788000705059e-02  9.8923427221739406e-03  -2.3225225167814625e-02  8.6414039639273646e-04  3.3015702701585242e-02  2.7021410179154461e-02  1.0838510592710038e-02  4.9380022246425966e-02  2.3946894516386596e-02  2.4576678232089082e-02  6.1588019200203758e-05  1.7866870862774550e-02  7.7233625992649221e-05  7.4388095478430941e-05  1.0988643250674412e-03  1.4210463110112177e-03  7.0188333721222401e-04  3.3707849419165921e-04  5.8873263630316165e-04  1.0236307775381926e-04  5.7850619752154830e-02  1.0321656378685873e-02  3.9623042083587285e-03  1.0352265887148296e-01  1.6512551075322376e-03  2.2429176278655261e-02  1.2282360025587269e-02  -2.6349461022609672e-02  2.1774047896086654e-02  3.1861045376630842e-02  2.5403255472538737e-02  1.2598372648059398e-02  1.6240054653920220e-03  3.7120234904684205e-04  -8.0891442605441941e-02  -2.4006601545567538e-02  3.7750953258527883e-03  3.0138453795879489e-04  -1.0427351953814368e-04  -3.7215266199025467e-02  -5.1480818208870308e-03  2.9595261129219871e-04  -2.8818002278391344e-02  1.5384824994545349e-04  4.7948415190349307e-02  6.0436361036829672e-02  1.0563566897117029e-01  1.1575494920850543e-04  4.8235020665806018e-02  5.3014443274345627e-04  2.7941101789877979e-03  -1.1022166135022180e-03  -6.0034552997161976e-02  1.2097562107747591e-02  -5.8188267111784046e-05  8.1825143847083479e-05  -2.8936298132599739e-04  3.7509095564246860e-04  1.1431955045315262e-03  2.7552437433665932e-02  8.5697189855630500e-03  1.7560762860585818e-03  4.3810290003320525e-04  1.0169158515519696e-04  -3.2815743775838645e-02  2.7880047159125476e-05  4.2879330372754134e-04  -3.5101266822488951e-02  1.5164604303714592e-03  2.8549543595646982e-03  3.0137726377459681e-04  9.5379973313138161e-06  2.3539305240223515e-02  -5.8458397902578091e-02  5.0835215676186103e-02  2.2810214706353390e-04  6.4380069126281886e-02  2.3163799495299987e-02  -9.0322088948762078e-02  2.1073918025345108e-02  5.8258317162449167e-03  -3.0013070855208844e-04  -1.1036351883761228e-01  2.5469848055454340e-04  -1.0164044642773020e-03  1.8213762565027630e-02  1.2413304236522031e-03  1.2793634962719340e-04  8.1038568630050034e-05  1.0088114553990357e-04  2.7908757075080681e-02  -4.7271329167926583e-02  2.6232586448335076e-05  3.0686811941236521e-04  6.1868200457573016e-03  1.7914738788704428e-02  9.0945790693309849e-05  -6.1302260983160814e-02  1.4936305296326851e-03  2.6027947851209360e-03  1.1335893089598524e-02  3.1632403068714297e-04  2.0841436818145283e-04  1.0739070257514362e-03  7.9340579758074972e-02  4.6547472928737253e-02  5.7971922876017906e-02  2.8674767115736814e-03  8.5921954256966193e-02  5.9164600634642223e-04  8.2262406533199998e-03  -5.0903875582206467e-05  2.1586142220074886e-04  -8.8839762941375772e-02  1.2315871298020000e-04  6.7007576362986904e-02  8.8742942334369811e-03  1.1397897049639700e-03  1.3489193850077681e-04  1.9228943557720005e-03  8.2592544143650810e-03  -6.4092219407704890e-02  -6.3720452184412607e-02  1.8813134545483324e-04  -1.0452313344070624e-04  1.8445786122387418e-04  -4.7387096989056500e-02  7.0696822781422981e-03  2.8018759604952956e-06  1.0817871283163960e-01  -9.8670015057821914e-02  6.7114279044334902e-05  1.0790231272859863e-01  1.5396755583299294e-04  -2.1604107189792110e-03  6.9933976176278237e-02  -4.5619432979975730e-05  9.2188115957581832e-04  8.5939398668694308e-05  5.8233208144979899e-05  -8.8892027251114267e-02  -1.2324736977803155e-01  5.0348193188053342e-04  4.0653124189008041e-04  2.4341591894910613e-03  3.1631028869794891e-03  4.4364200560299317e-04  4.2541094260418622e-03  1.1671559103063529e-04  3.3689069699560543e-02  -4.3857706314113810e-04  2.5125429879212023e-03  6.4741820955677173e-05  2.1338543737761083e-02  -1.7821284000966328e-01  -3.2971456559101359e-02  8.1298561206060688e-02  -6.4647736843004261e-02  3.6041696563423789e-04  2.6417904026630717e-02  -1.0457794091365170e-01  -1.4125332634158877e-04  -1.1637200477024595e-01  8.7218552461352887e-05  1.7310985139416514e-04  -6.1933777365308156e-04  2.3878897363398445e-04  -9.9413042890894573e-02  -1.7733556264261122e-04  5.7555614943429465e-04  7.1769209587191620e-05  3.2330555051793691e-03  7.4597735641916060e-03  7.1249724245453470e-03  6.3591822478511369e-03  8.7393646664706180e-05  9.5640296095384630e-03  1.7540195560338434e-03  1.7636366653965594e-02  2.0549006848561953e-03  4.8794891996563949e-02  1.2388605523818361e-03  3.1932085868944079e-04  1.8968597862530342e-04  -1.1956952879539433e-01  5.0360219300159704e-03  -9.3373940987971346e-02  2.0130196432586209e-05  -2.2738282082661286e-04  3.5685964048991301e-03  6.2007363392118670e-03  -2.3699203619315277e-04  1.5326633800050025e-04  8.6913570307871541e-04  1.4874997245461563e-03  1.0172124880911088e-04  1.3681558345391497e-02  1.2024947683078911e-02  4.3324363425738836e-03  -8.8189011456140623e-04  8.3963072410639314e-03  3.8031622240366159e-02  2.6332344997925534e-04  5.6942835500040740e-04  -2.6121823024360131e-02  -4.2595045453994662e-04  1.3050859677774035e-03  1.9286462462848674e-04  4.4954277765764154e-02  -3.2867951299827808e-02  1.3739484275902198e-04  1.5837076803842201e-03  1.8650538101852333e-02  8.7123112676474148e-05  5.6143769025701729e-05  1.1251130189447577e-03  4.5926922178711113e-04  -1.1527737968412771e-01  9.2407810829463492e-04  8.8590042723791075e-05  -4.9125176215014919e-05  -6.9457455274802530e-04  -4.4432669104719609e-02  8.2499958279525228e-05  2.8718128004286733e-04  9.5808363438371731e-04  -1.1855342563489550e-01  -5.4928315096502263e-02  5.5823334863572350e-03  1.3736783761765091e-04  1.7078484363585331e-04  1.0112037543504675e-04  4.2718932217532442e-04  2.9365074713936334e-03  1.6185565326198883e-02  8.7542525779528868e-04  -9.3012149863179489e-02  6.2143069740164855e-04  2.0200799323992356e-02  2.4994965293946476e-02  7.2552713251944666e-03  -1.0004027943747178e-01  3.2288208924379023e-04  8.9683718631610127e-05  1.0666098919281477e-03  3.2474245417131578e-04  6.9372257215942115e-03  3.7752773043509911e-03  1.4862746383167966e-02  -1.0213512497365738e-01  1.6999229449389128e-02  8.5456824350079602e-04  1.7942790640111634e-04  1.1870307421743477e-04  4.6068589835275751e-02  3.3702097234978868e-04  1.2938215373835927e-04  1.1786296011504497e-04  6.2803803244203509e-04  7.1335464980078862e-04  1.4540564699987217e-04  7.5847033901925721e-05  1.3106032319566202e-02  -2.6981560023228452e-04  5.7946565365640617e-04  1.5693082418621075e-03  4.2298190477479074e-04  -2.9868015862279378e-02  1.7807760114693901e-03  1.7475202042045418e-02  4.8255251531965759e-03  4.3282315225046212e-04  1.8008554342676989e-04  -7.6368442291923480e-02  2.5535730831214978e-02  8.9769949141603936e-05  -3.1152766716927135e-06  4.5122908428039676e-03  3.7128485210744827e-02  -7.4244367042741691e-02  1.3206633186645974e-03  2.0234346399144218e-02  9.1426619037273280e-05  4.3601085351307643e-04  8.6465206314817224e-03  5.9129811420208936e-03  -2.5391097279857219e-03  6.2513068559478971e-04  8.7983696111361954e-05  3.8474835478127719e-04  -3.4355160769061262e-02  1.0589879325717244e-04  1.0951899066972754e-04  7.0386780625169133e-05  -7.6698405854444374e-02  3.1610801327061316e-02  1.4795961778399637e-04  -1.5405024269459814e-03  2.9888881980930686e-06  8.1554544855637720e-02  -3.7468775429920505e-02  -6.3929730941308044e-03  -8.6993380732041298e-05  2.3094769264123889e-04  -7.1618829766646160e-06  3.7553510370690810e-02  -2.1378203282549531e-04  -5.6521006761176351e-03  3.8239625622423938e-04  9.4510335696465136e-02  -2.9419774406313333e-07  2.0812458170759488e-03  9.1703792373235782e-02  9.2943188216025791e-04  4.8321572949521649e-02  5.7751840288708320e-02  1.8404303354463997e-04  -9.8351242268939583e-04  -4.5412283142599518e-03  4.0163664803935933e-02  8.8668557795915353e-04  5.3121954658318093e-04  1.7472430648130059e-04  7.3153786024507861e-04  1.1699410404328286e-04  1.3735218441216602e-04  2.4216934300702933e-04  1.9684659675014687e-02  5.9607230999590179e-02  3.7875393316172908e-02  5.1276995072889052e-04  -3.4822394336252747e-02  -1.1083212711466808e-01  5.0924077677419309e-05  5.0305783516654714e-05  7.8270602804133169e-05  4.2670252122630468e-05  7.8283862679028157e-05  2.5072469110881096e-02  -4.3083044556038362e-02  -3.6361012342170933e-03  1.6211114525225385e-03  8.6701092806942831e-05  2.1441307223345063e-04  3.7052544714402007e-04  2.4322717219002117e-03  4.7715944480761580e-02  6.8655829824784047e-04  2.1880384140107964e-04  2.8517377433070064e-04  1.0379806068834790e-04  -4.1430256354964669e-03  6.4093505024793250e-05  -1.9088568472396821e-03  2.0033435840346083e-03  4.8142941560774775e-03  7.2344148820537007e-03  9.1546948741911341e-03  2.1926173162666813e-03  -2.2745184360504654e-04  -2.0611094813189745e-02  3.0821713918768889e-03  1.2016397733612716e-02  7.0812589059774764e-02  -3.2941961715892039e-02  3.6621427201201986e-04  5.4353417910140811e-04  8.9995437064297103e-03  2.3462254324548751e-02  6.9153618257844870e-02  1.3654338886035032e-04  2.2391916874107655e-04  9.2389525663924836e-05  1.7794780691972330e-02  6.4013970156675939e-02  2.0235929382556883e-03  4.0659238700374217e-02  6.4447078789870771e-02  2.8510687640632595e-02  3.7115886947271782e-03  5.9906430044577054e-03  1.5063874387686114e-03  -5.8264469975307688e-02  1.0782972823811666e-04  5.0484492574156127e-04  -2.6825565721001620e-03  1.4935407522257661e-03  1.9407440023016653e-02  6.0102005683504905e-02  9.1346125902652384e-02  8.7715185764687618e-05  -4.0161800769074568e-05  6.5115243648091875e-03  3.1679208716611594e-04  8.5936560911466897e-02  1.8409275368678121e-04  3.3675986779604916e-04  2.9677190056842981e-04  7.6575564398857692e-05  -2.9163868654609425e-02  1.3410566919129287e-02  1.4307372684863106e-02  1.8507656865444745e-04  1.1473894624867112e-04  2.0405915430397482e-04  1.7323771074081321e-03  7.9222394452919256e-05  1.2913591937995146e-03  1.8884321967794124e-03  7.6928639104869876e-05  -7.8211111593314613e-05  9.8022865117757228e-03  -2.9446913378106628e-03  4.1632546614739346e-03  2.1697471674189026e-03  1.0244842510539771e-04  -7.9967736457896964e-03  -2.1011326314772367e-03  1.1927605310192817e-01  1.3834595442127322e-04  3.9870272171257915e-04  2.1572198212872391e-04  4.2391752163573514e-02  4.4129560965899296e-02  6.8388702728500603e-02  3.2872078671868756e-05  1.6136361978513547e-04  1.2973623708063947e-03  2.7165242786276234e-01  -1.8038976036941299e-03  5.1708914708118001e-04  1.4510897499950831e-01  3.0509111888801739e-04  1.5322317837988035e-02  3.5288784642110554e-05  -2.3958555137966494e-04  1.1598299122080079e-04  1.0096999088800403e-04  1.1670061752035651e-03  2.3708053411456557e-03  4.8082337892299564e-04  7.4897451859427450e-05  5.1799585833171120e-04  2.5723850158652510e-04  5.1387672387386192e-04  6.3440652622503826e-02  3.4564941449636982e-02  1.1226580632490363e-01  -3.2880928028759450e-02  1.3238442137999973e-04  5.0502888120392388e-03  -8.9981066025781164e-03  2.0544361871732708e-01  2.1532276708110479e-01  7.0754292956010613e-03  1.3092102889615012e-01  8.5548825347679536e-03  6.3599783372755197e-03  4.7750192592432234e-03  2.2639460485258375e-02  1.6274700574630662e-02  8.7015549118791280e-02  7.4122329387558592e-04  1.7342008236691745e-02  -4.7707028878190891e-05  6.3955364758736907e-05  2.3831298571187006e-03  1.4938777825130173e-02  2.4729947097704241e-01  1.7138082386530856e-01  1.5130427538049551e-03  2.3262380990943479e-02  1.3448820390424621e-03  8.8133221560659933e-05  1.3748822381181688e-04  1.3859864562902351e-03  1.9053198470338115e-03  1.5889688614073812e-02  1.1974507012740708e-03  2.6624890981546950e-03  1.0239706288452358e-03  6.4025488140661306e-03  1.4525101208334116e-04  -9.2381909428103023e-03  -1.0388236699977139e-01  7.9544199337211866e-02  1.3302618980286895e-03  2.48914