<?xml version="1.0"?>
<VTKFile type="UnstructuredGrid"  version="0.1"  >
<UnstructuredGrid>
<Piece  NumberOfPoints="441" NumberOfCells="800">
<Points>
<DataArray  type="Float64"  NumberOfComponents="3"  format="ascii">-0.5 -0.5 0  -0.45 -0.5 0  -0.4 -0.5 0  -0.35 -0.5 0  -0.3 -0.5 0  -0.25 -0.5 0  -0.2 -0.5 0  -0.15 -0.5 0  -0.09999999999999998 -0.5 0  -0.04999999999999999 -0.5 0  0 -0.5 0  0.05000000000000004 -0.5 0  0.09999999999999998 -0.5 0  0.15 -0.5 0  0.2 -0.5 0  0.25 -0.5 0  0.3 -0.5 0  0.35 -0.5 0  0.4 -0.5 0  0.45 -0.5 0  0.5 -0.5 0  -0.5 -0.45 0  -0.45 -0.45 0  -0.4 -0.45 0  -0.35 -0.45 0  -0.3 -0.45 0  -0.25 -0.45 0  -0.2 -0.45 0  -0.15 -0.45 0  -0.09999999999999998 -0.45 0  -0.04999999999999999 -0.45 0  0 -0.45 0  0.05000000000000004 -0.45 0  0.09999999999999998 -0.45 0  0.15 -0.45 0  0.2 -0.45 0  0.25 -0.45 0  0.3 -0.45 0  0.35 -0.45 0  0.4 -0.45 0  0.45 -0.45 0  0.5 -0.45 0  -0.5 -0.4 0  -0.45 -0.4 0  -0.4 -0.4 0  -0.35 -0.4 0  -0.3 -0.4 0  -0.25 -0.4 0  -0.2 -0.4 0  -0.15 -0.4 0  -0.09999999999999998 -0.4 0  -0.04999999999999999 -0.4 0  0 -0.4 0  0.05000000000000004 -0.4 0  0.09999999999999998 -0.4 0  0.15 -0.4 0  0.2 -0.4 0  0.25 -0.4 0  0.3 -0.4 0  0.35 -0.4 0  0.4 -0.4 0  0.45 -0.4 0  0.5 -0.4 0  -0.5 -0.35 0  -0.45 -0.35 0  -0.4 -0.35 0  -0.35 -0.35 0  -0.3 -0.35 0  -0.25 -0.35 0  -0.2 -0.35 0  -0.15 -0.35 0  -0.09999999999999998 -0.35 0  -0.04999999999999999 -0.35 0  0 -0.35 0  0.05000000000000004 -0.35 0  0.09999999999999998 -0.35 0  0.15 -0.35 0  0.2 -0.35 0  0.25 -0.35 0  0.3 -0.35 0  0.35 -0.35 0  0.4 -0.35 0  0.45 -0.35 0  0.5 -0.35 0  -0.5 -0.3 0  -0.45 -0.3 0  -0.4 -0.3 0  -0.35 -0.3 0  -0.3 -0.3 0  -0.25 -0.3 0  -0.2 -0.3 0  -0.15 -0.3 0  -0.09999999999999998 -0.3 0  -0.04999999999999999 -0.3 0  0 -0.3 0  0.05000000000000004 -0.3 0  0.09999999999999998 -0.3 0  0.15 -0.3 0  0.2 -0.3 0  0.25 -0.3 0  0.3 -0.3 0  0.35 -0.3 0  0.4 -0.3 0  0.45 -0.3 0  0.5 -0.3 0  -0.5 -0.25 0  -0.45 -0.25 0  -0.4 -0.25 0  -0.35 -0.25 0  -0.3 -0.25 0  -0.25 -0.25 0  -0.2 -0.25 0  -0.15 -0.25 0  -0.09999999999999998 -0.25 0  -0.04999999999999999 -0.25 0  0 -0.25 0  0.05000000000000004 -0.25 0  0.09999999999999998 -0.25 0  0.15 -0.25 0  0.2 -0.25 0  0.25 -0.25 0  0.3 -0.25 0  0.35 -0.25 0  0.4 -0.25 0  0.45 -0.25 0  0.5 -0.25 0  -0.5 -0.2 0  -0.45 -0.2 0  -0.4 -0.2 0  -0.35 -0.2 0  -0.3 -0.2 0  -0.25 -0.2 0  -0.2 -0.2 0  -0.15 -0.2 0  -0.09999999999999998 -0.2 0  -0.04999999999999999 -0.2 0  0 -0.2 0  0.05000000000000004 -0.2 0  0.09999999999999998 -0.2 0  0.15 -0.2 0  0.2 -0.2 0  0.25 -0.2 0  0.3 -0.2 0  0.35 -0.2 0  0.4 -0.2 0  0.45 -0.2 0  0.5 -0.2 0  -0.5 -0.15 0  -0.45 -0.15 0  -0.4 -0.15 0  -0.35 -0.15 0  -0.3 -0.15 0  -0.25 -0.15 0  -0.2 -0.15 0  -0.15 -0.15 0  -0.09999999999999998 -0.15 0  -0.04999999999999999 -0.15 0  0 -0.15 0  0.05000000000000004 -0.15 0  0.09999999999999998 -0.15 0  0.15 -0.15 0  0.2 -0.15 0  0.25 -0.15 0  0.3 -0.15 0  0.35 -0.15 0  0.4 -0.15 0  0.45 -0.15 0  0.5 -0.15 0  -0.5 -0.09999999999999998 0  -0.45 -0.09999999999999998 0  -0.4 -0.09999999999999998 0  -0.35 -0.09999999999999998 0  -0.3 -0.09999999999999998 0  -0.25 -0.09999999999999998 0  -0.2 -0.09999999999999998 0  -0.15 -0.09999999999999998 0  -0.09999999999999998 -0.09999999999999998 0  -0.04999999999999999 -0.09999999999999998 0  0 -0.09999999999999998 0  0.05000000000000004 -0.09999999999999998 0  0.09999999999999998 -0.09999999999999998 0  0.15 -0.09999999999999998 0  0.2 -0.09999999999999998 0  0.25 -0.09999999999999998 0  0.3 -0.09999999999999998 0  0.35 -0.09999999999999998 0  0.4 -0.09999999999999998 0  0.45 -0.09999999999999998 0  0.5 -0.09999999999999998 0  -0.5 -0.04999999999999999 0  -0.45 -0.04999999999999999 0  -0.4 -0.04999999999999999 0  -0.35 -0.04999999999999999 0  -0.3 -0.04999999999999999 0  -0.25 -0.04999999999999999 0  -0.2 -0.04999999999999999 0  -0.15 -0.04999999999999999 0  -0.09999999999999998 -0.04999999999999999 0  -0.04999999999999999 -0.04999999999999999 0  0 -0.04999999999999999 0  0.05000000000000004 -0.04999999999999999 0  0.09999999999999998 -0.04999999999999999 0  0.15 -0.04999999999999999 0  0.2 -0.04999999999999999 0  0.25 -0.04999999999999999 0  0.3 -0.04999999999999999 0  0.35 -0.04999999999999999 0  0.4 -0.04999999999999999 0  0.45 -0.04999999999999999 0  0.5 -0.04999999999999999 0  -0.5 0 0  -0.45 0 0  -0.4 0 0  -0.35 0 0  -0.3 0 0  -0.25 0 0  -0.2 0 0  -0.15 0 0  -0.09999999999999998 0 0  -0.04999999999999999 0 0  0 0 0  0.05000000000000004 0 0  0.09999999999999998 0 0  0.15 0 0  0.2 0 0  0.25 0 0  0.3 0 0  0.35 0 0  0.4 0 0  0.45 0 0  0.5 0 0  -0.5 0.05000000000000004 0  -0.45 0.05000000000000004 0  -0.4 0.05000000000000004 0  -0.35 0.05000000000000004 0  -0.3 0.05000000000000004 0  -0.25 0.05000000000000004 0  -0.2 0.05000000000000004 0  -0.15 0.05000000000000004 0  -0.09999999999999998 0.05000000000000004 0  -0.04999999999999999 0.05000000000000004 0  0 0.05000000000000004 0  0.05000000000000004 0.05000000000000004 0  0.09999999999999998 0.05000000000000004 0  0.15 0.05000000000000004 0  0.2 0.05000000000000004 0  0.25 0.05000000000000004 0  0.3 0.05000000000000004 0  0.35 0.05000000000000004 0  0.4 0.05000000000000004 0  0.45 0.05000000000000004 0  0.5 0.05000000000000004 0  -0.5 0.09999999999999998 0  -0.45 0.09999999999999998 0  -0.4 0.09999999999999998 0  -0.35 0.09999999999999998 0  -0.3 0.09999999999999998 0  -0.25 0.09999999999999998 0  -0.2 0.09999999999999998 0  -0.15 0.09999999999999998 0  -0.09999999999999998 0.09999999999999998 0  -0.04999999999999999 0.09999999999999998 0  0 0.09999999999999998 0  0.05000000000000004 0.09999999999999998 0  0.09999999999999998 0.09999999999999998 0  0.15 0.09999999999999998 0  0.2 0.09999999999999998 0  0.25 0.09999999999999998 0  0.3 0.09999999999999998 0  0.35 0.09999999999999998 0  0.4 0.09999999999999998 0  0.45 0.09999999999999998 0  0.5 0.09999999999999998 0  -0.5 0.15 0  -0.45 0.15 0  -0.4 0.15 0  -0.35 0.15 0  -0.3 0.15 0  -0.25 0.15 0  -0.2 0.15 0  -0.15 0.15 0  -0.09999999999999998 0.15 0  -0.04999999999999999 0.15 0  0 0.15 0  0.05000000000000004 0.15 0  0.09999999999999998 0.15 0  0.15 0.15 0  0.2 0.15 0  0.25 0.15 0  0.3 0.15 0  0.35 0.15 0  0.4 0.15 0  0.45 0.15 0  0.5 0.15 0  -0.5 0.2 0  -0.45 0.2 0  -0.4 0.2 0  -0.35 0.2 0  -0.3 0.2 0  -0.25 0.2 0  -0.2 0.2 0  -0.15 0.2 0  -0.09999999999999998 0.2 0  -0.04999999999999999 0.2 0  0 0.2 0  0.05000000000000004 0.2 0  0.09999999999999998 0.2 0  0.15 0.2 0  0.2 0.2 0  0.25 0.2 0  0.3 0.2 0  0.35 0.2 0  0.4 0.2 0  0.45 0.2 0  0.5 0.2 0  -0.5 0.25 0  -0.45 0.25 0  -0.4 0.25 0  -0.35 0.25 0  -0.3 0.25 0  -0.25 0.25 0  -0.2 0.25 0  -0.15 0.25 0  -0.09999999999999998 0.25 0  -0.04999999999999999 0.25 0  0 0.25 0  0.05000000000000004 0.25 0  0.09999999999999998 0.25 0  0.15 0.25 0  0.2 0.25 0  0.25 0.25 0  0.3 0.25 0  0.35 0.25 0  0.4 0.25 0  0.45 0.25 0  0.5 0.25 0  -0.5 0.3 0  -0.45 0.3 0  -0.4 0.3 0  -0.35 0.3 0  -0.3 0.3 0  -0.25 0.3 0  -0.2 0.3 0  -0.15 0.3 0  -0.09999999999999998 0.3 0  -0.04999999999999999 0.3 0  0 0.3 0  0.05000000000000004 0.3 0  0.09999999999999998 0.3 0  0.15 0.3 0  0.2 0.3 0  0.25 0.3 0  0.3 0.3 0  0.35 0.3 0  0.4 0.3 0  0.45 0.3 0  0.5 0.3 0  -0.5 0.35 0  -0.45 0.35 0  -0.4 0.35 0  -0.35 0.35 0  -0.3 0.35 0  -0.25 0.35 0  -0.2 0.35 0  -0.15 0.35 0  -0.09999999999999998 0.35 0  -0.04999999999999999 0.35 0  0 0.35 0  0.05000000000000004 0.35 0  0.09999999999999998 0.35 0  0.15 0.35 0  0.2 0.35 0  0.25 0.35 0  0.3 0.35 0  0.35 0.35 0  0.4 0.35 0  0.45 0.35 0  0.5 0.35 0  -0.5 0.4 0  -0.45 0.4 0  -0.4 0.4 0  -0.35 0.4 0  -0.3 0.4 0  -0.25 0.4 0  -0.2 0.4 0  -0.15 0.4 0  -0.09999999999999998 0.4 0  -0.04999999999999999 0.4 0  0 0.4 0  0.05000000000000004 0.4 0  0.09999999999999998 0.4 0  0.15 0.4 0  0.2 0.4 0  0.25 0.4 0  0.3 0.4 0  0.35 0.4 0  0.4 0.4 0  0.45 0.4 0  0.5 0.4 0  -0.5 0.45 0  -0.45 0.45 0  -0.4 0.45 0  -0.35 0.45 0  -0.3 0.45 0  -0.25 0.45 0  -0.2 0.45 0  -0.15 0.45 0  -0.09999999999999998 0.45 0  -0.04999999999999999 0.45 0  0 0.45 0  0.05000000000000004 0.45 0  0.09999999999999998 0.45 0  0.15 0.45 0  0.2 0.45 0  0.25 0.45 0  0.3 0.45 0  0.35 0.45 0  0.4 0.45 0  0.45 0.45 0  0.5 0.45 0  -0.5 0.5 0  -0.45 0.5 0  -0.4 0.5 0  -0.35 0.5 0  -0.3 0.5 0  -0.25 0.5 0  -0.2 0.5 0  -0.15 0.5 0  -0.09999999999999998 0.5 0  -0.04999999999999999 0.5 0  0 0.5 0  0.05000000000000004 0.5 0  0.09999999999999998 0.5 0  0.15 0.5 0  0.2 0.5 0  0.25 0.5 0  0.3 0.5 0  0.35 0.5 0  0.4 0.5 0  0.45 0.5 0  0.5 0.5 0  </DataArray>
</Points>
<Cells>
[...]
<PointData  Scalars="f_18-0"> 
<DataArray  type="Float64"  Name="f_18-0"  format="ascii">-1.9052130851197327e-17  1.4188044400262311e-16  -4.1801336308503585e-17  -6.5324865410527816e-16  1.8801623265605200e-16  3.0693340671669112e-15  2.6221766749134708e-15  -5.8060086715567863e-15  -1.5312897228080383e-14  -1.4408738586253207e-14  -4.0764912404228254e-15  3.8521389810300020e-15  3.6955475271475661e-15  4.4942754620906782e-16  -7.0878872988189989e-16  -1.6637147610207353e-16  1.3737944375676160e-16  2.1705677215184658e-17  -2.8863290490702108e-17  1.8099611949688626e-18  7.1043114729216990e-18  1.4465030308868845e-16  -1.0514704777075208e-16  -2.9009152347121490e-16  6.7112487100463148e-16  1.2156406575430504e-15  -2.9874848063428488e-15  -7.6260489483444519e-15  1.1265389561940275e-15  2.2636539259231987e-14  3.3412169994231408e-14  1.9513056503625042e-14  -2.0025542146595274e-15  -9.3633337038718350e-15  -3.8750038518465878e-15  1.0329920740227322e-15  9.5198139787835552e-16  -1.6707485715229571e-16  -1.7275802180061407e-16  5.3367856398723006e-17  2.1471758729115257e-17  -1.6020754519334508e-17  -2.1587136169307080e-16  -2.1137448370577131e-16  8.6485614634804596e-16  2.0983462415385047e-16  -4.4671158597790328e-15  -4.6080216488058844e-17  2.1124084252728349e-14  2.0805626505871028e-14  -3.9387274262993827e-14  -1.0985681298887504e-13  -1.0305992402972553e-13  -2.6957721513570234e-14  2.9043299256657979e-14  2.5469642507912384e-14  1.9683627736843889e-15  -4.9839811383469435e-15  -7.1923880376378786e-16  9.7145258973534798e-16  1.9831929798040223e-17  -1.8161026087129636e-16  4.2466964919718218e-17  -4.0765231552942167e-16  9.9046796676100898e-16  -4.1050634734679262e-16  -4.3820437755014842e-15  6.3434278284114773e-15  1.8410225796103606e-14  -3.3015249631095633e-14  -1.0388092480165168e-13  3.7911466126250513e-15  2.9781609961615054e-13  4.4776120420187636e-13  2.5454826082170629e-13  -3.6259647219750271e-14  -1.2514740098490268e-13  -4.5456405126161370e-14  1.5998745671391931e-14  1.0673179943815782e-14  -3.1292178794434992e-15  -1.6607224692255575e-15  8.7116134534475647e-16  8.1473830598296253e-17  1.7680294896106417e-15  -5.4338343282292469e-16  -4.1543218837898807e-15  9.3547814920931003e-15  9.9321322669015164e-15  -5.7762295576141326e-14  -2.1525960714254388e-14  2.8400530772639167e-13  3.2662374013508382e-13  -5.2465944279866040e-13  -1.5645985814777736e-12  -1.4616182725842192e-12  -3.4735157594955475e-13  4.3336640404181237e-13  3.4476172326557979e-13  9.7196294312851292e-15  -6.7915334530175072e-14  -3.2969977372459218e-15  1.2808189671650045e-14  -1.5757934384598989e-15  -1.9104989121966096e-15  1.5095722269085553e-16  -4.6325383634638374e-15  9.6957013271792794e-15  5.8413532755398865e-15  -6.2955699117379917e-14  4.9796289875482887e-14  2.8363126965982426e-13  -3.6605743531890849e-13  -1.5062349971481434e-12  -1.1302773903349759e-13  4.1972502120953934e-12  6.4315276820425160e-12  3.5486358609889205e-12  -6.5408451297915382e-13  -1.7821432581067947e-12  -5.5907407704005659e-13  2.5332662702243808e-13  1.2110085097460109e-13  -5.3747200836804372e-14  -1.3445877075207215e-14  1.2792077842363750e-14  -9.0165085975250528e-15  7.8030545777945007e-15  8.9233554531738950e-15  -6.3609228496142953e-14  7.6608321661147500e-14  2.2622427446838031e-13  -6.9781033686870077e-13  -6.0857524992945589e-13  3.7649122411506324e-12  5.1415619804199900e-12  -6.9553842495000386e-12  -2.2457839672549109e-11  -2.0853515751018573e-11  -4.4092861180025366e-12  6.4805821395788029e-12  4.6478272592708279e-12  -1.1867345376873770e-13  -9.0516699388290249e-13  5.0115746387762780e-14  1.5521693405895321e-13  -4.4806235144677061e-14  2.4036605200596067e-15  1.7970669391381866e-14  -6.0213690408176772e-14  5.7404055393748002e-14  2.2320592686041355e-13  -7.8832972361913887e-13  6.5173285266875844e-14  4.1706713865742520e-12  -3.5030708447206094e-12  -2.1747448699765090e-11  -4.2956578902068495e-12  5.9257643995881553e-11  9.2674275122066908e-11  4.9343093741076503e-11  -1.1403331956046110e-11  -2.5282724510566655e-11  -6.6267383646345343e-12  3.9015139765083791e-12  1.2239817484450814e-12  -8.4202602357528128e-13  -2.7472495026125670e-14  4.0182238312552610e-14  -4.0761216759876398e-14  -8.0516624119578170e-15  2.7724776585736700e-13  -7.2994377559225089e-13  1.0846300741066793e-13  4.0304339318729957e-12  -7.3314797782904009e-12  -1.2949719176465938e-11  4.8385558638897589e-11  8.0996908823689099e-11  -9.0904754531050634e-11  -3.2360390914273188e-10  -2.9775190280376417e-10  -5.4339495165569055e-11  9.6619816396505791e-11  6.1982612411109021e-11  -5.3668521974785172e-12  -1.1616283736035688e-11  2.0673396884475210e-12  1.5832753411265392e-12  1.4881980024717924e-14  -8.8434306306368259e-14  2.8049680689063017e-13  -4.2637972491344299e-13  -4.9644779050549452e-13  4.2098549368939463e-12  -7.5952555887160863e-12  -8.6429155511504999e-12  5.7313530618927046e-11  -2.1326495009875766e-11  -3.1177578260835468e-10  -1.0567705560224160e-10  8.3869348150610339e-10  1.3396448253531687e-09  6.8284097674272572e-10  -1.9356546679108800e-10  -3.5709795913950184e-10  -7.4135453641958725e-11  5.8717738987255575e-11  9.1807127991516669e-12  -1.1918272410257439e-11  -1.1534825019228754e-13  8.1356662400928484e-14  1.5449834983002646e-13  -1.2739198642875882e-12  3.7788502623301448e-12  -4.1301605862655854e-12  -1.2417177040321883e-11  5.8281074685971787e-11  -5.2829729744113150e-11  -2.4080315963415394e-10  5.8772840600532691e-10  1.2805231202588572e-09  -1.1632923048004312e-09  -4.6880046309346691e-09  -4.2497858891150497e-09  -6.4093221669326128e-10  1.4354345351530163e-09  8.1915200568111514e-10  -1.2800864640204575e-10  -1.3777657701766961e-10  4.8411587800072181e-11  -1.9292584010806244e-13  3.5371556019510847e-13  -8.0742113787095371e-13  8.8072021059639975e-13  2.9758927689207101e-12  -1.9322438809537929e-11  4.9025378177588645e-11  -2.5278022423004724e-11  -2.4292376922026473e-10  6.9369205998651622e-10  1.8030256247323120e-10  -4.4128800264659640e-09  -2.2770847936946777e-09  1.1930624056520934e-08  1.9435734407736949e-08  9.4042470335244891e-09  -3.0934158552551684e-09  -4.8044023428580097e-09  -4.5286876346052934e-10  1.0924011337094331e-09  9.5350458297551644e-11  -9.2056702569879102e-14  3.2880442402114580e-13  -1.4168557154719033e-12  4.7911187104755299e-12  -1.1123813025553490e-11  9.2023473742006123e-12  5.5086725281321926e-11  -2.8808089453154405e-10  5.8772259999974121e-10  1.9600035285040918e-10  -4.0015060900599763e-09  6.2912079202299054e-09  2.0414117799337588e-08  -1.4343210864161613e-08  -6.8114557969064699e-08  -5.8291816613842604e-08  3.8362555851323246e-10  3.7096069384356998e-08  3.1100699234160473e-08  1.3162481680217877e-08  6.0845652933643116e-09  4.5915798619044718e-14  2.0909852630536141e-14  -6.4578520836662036e-13  4.4811756308677491e-12  -2.0761180862978447e-11  6.9652236190138642e-11  -1.5246947087544816e-10  7.1096647229742334e-11  9.9078096147705434e-10  -4.1563728974176413e-09  5.9427159590107500e-09  1.0707322949084136e-08  -6.0509488717963310e-08  -4.5376913440924085e-08  1.8764193144312385e-07  3.7401134765774513e-07  4.4596892987178277e-07  6.2457186361047562e-07  7.9599418524358779e-07  6.7031234764177777e-07  3.3148595283341927e-07  5.6527036167134796e-14  -1.4088737016595245e-13  3.7847057140736697e-13  8.2674881598512771e-14  -8.9387187830193236e-12  6.5707882425919191e-11  -3.0846012501473067e-10  1.0181587824077425e-09  -2.0498302392781021e-09  -1.0902761126137139e-10  1.7329227406571142e-08  -5.5606382873702737e-08  4.6640567198568205e-08  3.7254556198221700e-07  2.4524925922140839e-07  1.3374293616231776e-06  7.3748694113133958e-06  1.7318411773756378e-05  2.2649143194533551e-05  1.7534052416008544e-05  8.1619636254156599e-06  3.7111913019251304e-16  -5.1850327082131268e-14  3.9538512437453873e-13  -1.9830650062690212e-12  6.2109643455142429e-12  -2.0851617859116212e-12  -1.2365707593821349e-10  9.7328449477895836e-10  -4.6419441802694874e-09  1.4968261403363193e-08  -2.6382739451809708e-08  -2.1809757379153282e-08  3.2298084472671879e-07  -9.1983951341549604e-08  5.4172063083116158e-06  3.9316960075877950e-05  1.3233584998366085e-04  2.7250930801546035e-04  3.4674298775049184e-04  2.6965698233522391e-04  1.2804875721933353e-04  -1.3801374119375447e-14  2.9369659477083439e-14  -2.9628607588151354e-14  -5.4549119090364133e-13  5.3766114490293081e-12  -2.9716930884434649e-11  1.0289732056171301e-10  -8.9422629930819789e-11  -1.6937751193828020e-09  1.4637315310048981e-08  -7.0822774902808359e-08  2.3685495489485532e-07  1.1391757859655111e-07  5.8114170694145404e-06  6.6071874638052872e-05  3.4584230165064442e-04  1.1891574612945563e-03  2.5176429592390311e-03  3.2308118426057427e-03  2.5286503733942742e-03  1.1979129778845231e-03  3.9994419424985114e-16  1.1651997747569374e-14  -9.2966022756406351e-14  4.4328898553398227e-13  -9.2936276117094549e-13  -5.2964114744260304e-12  7.1194313582104242e-11  -4.4366079086001307e-10  1.7217765216488973e-09  -2.4039088735791749e-09  -2.0624633645928128e-08  3.1693825004837673e-07  1.2159218633217066e-06  3.9720182596667657e-05  3.4267372639246765e-04  1.9504983848179502e-03  6.7903395377544098e-03  1.3946355835799921e-02  1.7554480922788652e-02  1.3772899936592212e-02  6.5651034459604492e-03  2.8094726131475947e-15  -7.3549737481909753e-15  1.4432630781995939e-14  8.8714950601220204e-14  -1.1510517128974017e-12  6.7490269956735262e-12  -2.0895327342071509e-11  -3.0462641775574788e-11  8.8695423462900502e-10  -6.4456915337134436e-09  3.6769162463377740e-08  2.5884939527302105e-07  7.9067904494630744e-06  1.3166745687229740e-04  1.1849602066739712e-03  6.7907205513179983e-03  2.2349498471350464e-02  4.3762319709506864e-02  5.4203630339278004e-02  4.3137092932864905e-02  2.1065443222537100e-02  -6.3054351821425611e-16  -9.5892690705410125e-16  1.5796875216583510e-14  -1.0243478070009647e-13  3.5638595469559636e-13  1.9842379905082658e-13  -1.2420002535552261e-11  9.5621638222668869e-11  -4.0357719328338757e-10  6.2205742343608314e-10  2.5321992194899013e-08  5.7916712396372366e-07  1.7821807393189230e-05  2.6765561834939312e-04  2.5066424668999847e-03  1.3862468704455955e-02  4.3580380521694294e-02  8.3036161821114063e-02  1.0220875087010250e-01  8.2167922909780450e-02  4.0817565040728733e-02  -5.4337367860017689e-16  1.7174732017047165e-15  -6.5834755433239083e-15  8.1105092371681387e-15  1.3119093766548603e-13  -1.3031672761819236e-12  6.5783786895201493e-12  -1.3712229688387059e-11  -8.8067558647492050e-11  1.4676892859901403e-09  1.3408844218381754e-08  8.8490805058746994e-07  2.2271117631017544e-05  3.4411309474413604e-04  3.2205519723553368e-03  1.7417236142692281e-02  5.4181167535920935e-02  1.0239070604647500e-01  1.2527400781207335e-01  1.0073237487964913e-01  5.0567380229278161e-02  </DataArray> 
</PointData> 
</Piece>
</UnstructuredGrid>
</VTKFile>