<?xml version="1.0"?>
<VTKFile type="UnstructuredGrid"  version="0.1"  >
<UnstructuredGrid>
<Piece  NumberOfPoints="961" NumberOfCells="1800">
<Points>
<DataArray  type="Float64"  NumberOfComponents="3"  format="ascii">0 0 0  0.03333333333333333 0 0  0.06666666666666667 0 0  0.1 0 0  0.1333333333333333 0 0  0.1666666666666667 0 0  0.2 0 0  0.2333333333333333 0 0  0.2666666666666667 0 0  0.3 0 0  0.3333333333333333 0 0  0.3666666666666666 0 0  0.4 0 0  0.4333333333333333 0 0  0.4666666666666667 0 0  0.5 0 0  0.5333333333333333 0 0  0.5666666666666667 0 0  0.6 0 0  0.6333333333333333 0 0  0.6666666666666666 0 0  0.7 0 0  0.7333333333333333 0 0  0.7666666666666667 0 0  0.8 0 0  0.8333333333333334 0 0  0.8666666666666667 0 0  0.9 0 0  0.9333333333333333 0 0  0.9666666666666667 0 0  1 0 0  0 0.03333333333333333 0  0.03333333333333333 0.03333333333333333 0  0.06666666666666667 0.03333333333333333 0  0.1 0.03333333333333333 0  0.1333333333333333 0.03333333333333333 0  0.1666666666666667 0.03333333333333333 0  0.2 0.03333333333333333 0  0.2333333333333333 0.03333333333333333 0  0.2666666666666667 0.03333333333333333 0  0.3 0.03333333333333333 0  0.3333333333333333 0.03333333333333333 0  0.3666666666666666 0.03333333333333333 0  0.4 0.03333333333333333 0  0.4333333333333333 0.03333333333333333 0  0.4666666666666667 0.03333333333333333 0  0.5 0.03333333333333333 0  0.5333333333333333 0.03333333333333333 0  0.5666666666666667 0.03333333333333333 0  0.6 0.03333333333333333 0  0.6333333333333333 0.03333333333333333 0  0.6666666666666666 0.03333333333333333 0  0.7 0.03333333333333333 0  0.7333333333333333 0.03333333333333333 0  0.7666666666666667 0.03333333333333333 0  0.8 0.03333333333333333 0  0.8333333333333334 0.03333333333333333 0  0.8666666666666667 0.03333333333333333 0  0.9 0.03333333333333333 0  0.9333333333333333 0.03333333333333333 0  0.9666666666666667 0.03333333333333333 0  1 0.03333333333333333 0  0 0.06666666666666667 0  0.03333333333333333 0.06666666666666667 0  0.06666666666666667 0.06666666666666667 0  0.1 0.06666666666666667 0  0.1333333333333333 0.06666666666666667 0  0.1666666666666667 0.06666666666666667 0  0.2 0.06666666666666667 0  0.2333333333333333 0.06666666666666667 0  0.2666666666666667 0.06666666666666667 0  0.3 0.06666666666666667 0  0.3333333333333333 0.06666666666666667 0  0.3666666666666666 0.06666666666666667 0  0.4 0.06666666666666667 0  0.4333333333333333 0.06666666666666667 0  0.4666666666666667 0.06666666666666667 0  0.5 0.06666666666666667 0  0.5333333333333333 0.06666666666666667 0  0.5666666666666667 0.06666666666666667 0  0.6 0.06666666666666667 0  0.6333333333333333 0.06666666666666667 0  0.6666666666666666 0.06666666666666667 0  0.7 0.06666666666666667 0  0.7333333333333333 0.06666666666666667 0  0.7666666666666667 0.06666666666666667 0  0.8 0.06666666666666667 0  0.8333333333333334 0.06666666666666667 0  0.8666666666666667 0.06666666666666667 0  0.9 0.06666666666666667 0  0.9333333333333333 0.06666666666666667 0  0.9666666666666667 0.06666666666666667 0  1 0.06666666666666667 0  0 0.1 0  0.03333333333333333 0.1 0  0.06666666666666667 0.1 0  0.1 0.1 0  0.1333333333333333 0.1 0  0.1666666666666667 0.1 0  0.2 0.1 0  0.2333333333333333 0.1 0  0.2666666666666667 0.1 0  0.3 0.1 0  0.3333333333333333 0.1 0  0.3666666666666666 0.1 0  0.4 0.1 0  0.4333333333333333 0.1 0  0.4666666666666667 0.1 0  0.5 0.1 0  0.5333333333333333 0.1 0  0.5666666666666667 0.1 0  0.6 0.1 0  0.6333333333333333 0.1 0  0.6666666666666666 0.1 0  0.7 0.1 0  0.7333333333333333 0.1 0  0.7666666666666667 0.1 0  0.8 0.1 0  0.8333333333333334 0.1 0  0.8666666666666667 0.1 0  0.9 0.1 0  0.9333333333333333 0.1 0  0.9666666666666667 0.1 0  1 0.1 0  0 0.1333333333333333 0  0.03333333333333333 0.1333333333333333 0  0.06666666666666667 0.1333333333333333 0  0.1 0.1333333333333333 0  0.1333333333333333 0.1333333333333333 0  0.1666666666666667 0.1333333333333333 0  0.2 0.1333333333333333 0  0.2333333333333333 0.1333333333333333 0  0.2666666666666667 0.1333333333333333 0  0.3 0.1333333333333333 0  0.3333333333333333 0.1333333333333333 0  0.3666666666666666 0.1333333333333333 0  0.4 0.1333333333333333 0  0.4333333333333333 0.1333333333333333 0  0.4666666666666667 0.1333333333333333 0  0.5 0.1333333333333333 0  0.5333333333333333 0.1333333333333333 0  0.5666666666666667 0.1333333333333333 0  0.6 0.1333333333333333 0  0.6333333333333333 0.1333333333333333 0  0.6666666666666666 0.1333333333333333 0  0.7 0.1333333333333333 0  0.7333333333333333 0.1333333333333333 0  0.7666666666666667 0.1333333333333333 0  0.8 0.1333333333333333 0  0.8333333333333334 0.1333333333333333 0  0.8666666666666667 0.1333333333333333 0  0.9 0.1333333333333333 0  0.9333333333333333 0.1333333333333333 0  0.9666666666666667 0.1333333333333333 0  1 0.1333333333333333 0  0 0.1666666666666667 0  0.03333333333333333 0.1666666666666667 0  0.06666666666666667 0.1666666666666667 0  0.1 0.1666666666666667 0  0.1333333333333333 0.1666666666666667 0  0.1666666666666667 0.1666666666666667 0  0.2 0.1666666666666667 0  0.2333333333333333 0.1666666666666667 0  0.2666666666666667 0.1666666666666667 0  0.3 0.1666666666666667 0  0.3333333333333333 0.1666666666666667 0  0.3666666666666666 0.1666666666666667 0  0.4 0.1666666666666667 0  0.4333333333333333 0.1666666666666667 0  0.4666666666666667 0.1666666666666667 0  0.5 0.1666666666666667 0  0.5333333333333333 0.1666666666666667 0  0.5666666666666667 0.1666666666666667 0  0.6 0.1666666666666667 0  0.6333333333333333 0.1666666666666667 0  0.6666666666666666 0.1666666666666667 0  0.7 0.1666666666666667 0  0.7333333333333333 0.1666666666666667 0  0.7666666666666667 0.1666666666666667 0  0.8 0.1666666666666667 0  0.8333333333333334 0.1666666666666667 0  0.8666666666666667 0.1666666666666667 0  0.9 0.1666666666666667 0  0.9333333333333333 0.1666666666666667 0  0.9666666666666667 0.1666666666666667 0  1 0.1666666666666667 0  0 0.2 0  0.03333333333333333 0.2 0  0.06666666666666667 0.2 0  0.1 0.2 0  0.1333333333333333 0.2 0  0.1666666666666667 0.2 0  0.2 0.2 0  0.2333333333333333 0.2 0  0.2666666666666667 0.2 0  0.3 0.2 0  0.3333333333333333 0.2 0  0.3666666666666666 0.2 0  0.4 0.2 0  0.4333333333333333 0.2 0  0.4666666666666667 0.2 0  0.5 0.2 0  0.5333333333333333 0.2 0  0.5666666666666667 0.2 0  0.6 0.2 0  0.6333333333333333 0.2 0  0.6666666666666666 0.2 0  0.7 0.2 0  0.7333333333333333 0.2 0  0.7666666666666667 0.2 0  0.8 0.2 0  0.8333333333333334 0.2 0  0.8666666666666667 0.2 0  0.9 0.2 0  0.9333333333333333 0.2 0  0.9666666666666667 0.2 0  1 0.2 0  0 0.2333333333333333 0  0.03333333333333333 0.2333333333333333 0  0.06666666666666667 0.2333333333333333 0  0.1 0.2333333333333333 0  0.1333333333333333 0.2333333333333333 0  0.1666666666666667 0.2333333333333333 0  0.2 0.2333333333333333 0  0.2333333333333333 0.2333333333333333 0  0.2666666666666667 0.2333333333333333 0  0.3 0.2333333333333333 0  0.3333333333333333 0.2333333333333333 0  0.3666666666666666 0.2333333333333333 0  0.4 0.2333333333333333 0  0.4333333333333333 0.2333333333333333 0  0.4666666666666667 0.2333333333333333 0  0.5 0.2333333333333333 0  0.5333333333333333 0.2333333333333333 0  0.5666666666666667 0.2333333333333333 0  0.6 0.2333333333333333 0  0.6333333333333333 0.2333333333333333 0  0.6666666666666666 0.2333333333333333 0  0.7 0.2333333333333333 0  0.7333333333333333 0.2333333333333333 0  0.7666666666666667 0.2333333333333333 0  0.8 0.2333333333333333 0  0.8333333333333334 0.2333333333333333 0  0.8666666666666667 0.2333333333333333 0  0.9 0.2333333333333333 0  0.9333333333333333 0.2333333333333333 0  0.9666666666666667 0.2333333333333333 0  1 0.2333333333333333 0  0 0.2666666666666667 0  0.03333333333333333 0.2666666666666667 0  0.06666666666666667 0.2666666666666667 0  0.1 0.2666666666666667 0  0.1333333333333333 0.2666666666666667 0  0.1666666666666667 0.2666666666666667 0  0.2 0.2666666666666667 0  0.2333333333333333 0.2666666666666667 0  0.2666666666666667 0.2666666666666667 0  0.3 0.2666666666666667 0  0.3333333333333333 0.2666666666666667 0  0.3666666666666666 0.2666666666666667 0  0.4 0.2666666666666667 0  0.4333333333333333 0.2666666666666667 0  0.4666666666666667 0.2666666666666667 0  0.5 0.2666666666666667 0  0.5333333333333333 0.2666666666666667 0  0.5666666666666667 0.2666666666666667 0  0.6 0.2666666666666667 0  0.6333333333333333 0.2666666666666667 0  0.6666666666666666 0.2666666666666667 0  0.7 0.2666666666666667 0  0.7333333333333333 0.2666666666666667 0  0.7666666666666667 0.2666666666666667 0  0.8 0.2666666666666667 0  0.8333333333333334 0.2666666666666667 0  0.8666666666666667 0.2666666666666667 0  0.9 0.2666666666666667 0  0.9333333333333333 0.2666666666666667 0  0.9666666666666667 0.2666666666666667 0  1 0.2666666666666667 0  0 0.3 0  0.03333333333333333 0.3 0  0.06666666666666667 0.3 0  0.1 0.3 0  0.1333333333333333 0.3 0  0.1666666666666667 0.3 0  0.2 0.3 0  0.2333333333333333 0.3 0  0.2666666666666667 0.3 0  0.3 0.3 0  0.3333333333333333 0.3 0  0.3666666666666666 0.3 0  0.4 0.3 0  0.4333333333333333 0.3 0  0.4666666666666667 0.3 0  0.5 0.3 0  0.5333333333333333 0.3 0  0.5666666666666667 0.3 0  0.6 0.3 0  0.6333333333333333 0.3 0  0.6666666666666666 0.3 0  0.7 0.3 0  0.7333333333333333 0.3 0  0.7666666666666667 0.3 0  0.8 0.3 0  0.8333333333333334 0.3 0  0.8666666666666667 0.3 0  0.9 0.3 0  0.9333333333333333 0.3 0  0.9666666666666667 0.3 0  1 0.3 0  0 0.3333333333333333 0  0.03333333333333333 0.3333333333333333 0  0.06666666666666667 0.3333333333333333 0  0.1 0.3333333333333333 0  0.1333333333333333 0.3333333333333333 0  0.1666666666666667 0.3333333333333333 0  0.2 0.3333333333333333 0  0.2333333333333333 0.3333333333333333 0  0.2666666666666667 0.3333333333333333 0  0.3 0.3333333333333333 0  0.3333333333333333 0.3333333333333333 0  0.3666666666666666 0.3333333333333333 0  0.4 0.3333333333333333 0  0.4333333333333333 0.3333333333333333 0  0.4666666666666667 0.3333333333333333 0  0.5 0.3333333333333333 0  0.5333333333333333 0.33333333333333
[...]
<PointData  Scalars="f_18-0"> 
<DataArray  type="Float64"  Name="f_18-0"  format="ascii">-1.3225822652803749e-12  -2.3648568900926824e-12  3.5541944136994268e-12  1.1172076362379931e-11  1.1241323199386689e-12  -2.4025538969405953e-11  -3.4491243343155672e-11  -1.8743419327389405e-11  2.1566111709528709e-12  1.0736503888555124e-11  1.0990509498019730e-11  1.1128322849912221e-11  1.1716226543632993e-11  1.0531408027701871e-11  7.5645074767372144e-12  4.3347704849129894e-12  1.9893944341009759e-12  7.3160187343871659e-13  2.1557468264875061e-13  5.0886525686104362e-14  9.6132789695950470e-15  1.4565279458654926e-15  1.7669290830355594e-16  1.6941043127907890e-17  1.4353244922841803e-18  4.2588346278030459e-20  1.7317695511723159e-20  -3.5606515279904349e-21  9.2335429064640717e-22  -2.0607691570212581e-22  1.0916189629177809e-22  -1.1397381737776933e-12  4.3963725113337174e-12  1.5879259454874337e-12  -1.6604535082321703e-11  -1.8948123130742147e-11  2.3614298394216644e-11  7.2260734846069542e-11  7.7971637614038126e-11  6.7424232946541739e-11  9.9895993384219080e-11  1.8111138523667656e-10  2.6323652133178722e-10  2.9672598022031924e-10  2.6505795485294538e-10  1.8946809705441499e-10  1.0855862321496825e-10  4.9842738960754025e-11  1.8333750061804104e-11  5.4021785201756067e-12  1.2750058073599084e-12  2.4104696426696435e-13  3.6497207690089159e-14  4.4238007864896617e-15  4.3041196492979623e-16  3.3131839097977445e-17  2.1652200112307898e-18  8.1100409547305432e-20  9.1682858345658473e-21  -7.7374098693052338e-22  1.2058571360507691e-22  -1.2062056048276638e-23  8.4535745325643358e-12  -4.5310579497184826e-12  -1.8491681506949442e-11  2.0899262471384874e-11  8.7538786647147337e-11  4.0935965635862687e-11  -6.1649208979281895e-11  1.2660238412513693e-10  8.8494722025435644e-10  2.2144618998872392e-09  3.8789119132440057e-09  5.3540352933253150e-09  5.9434540980435481e-09  5.3017294638714126e-09  3.7923617073647567e-09  2.1736857069105080e-09  9.9821415813222631e-10  3.6725330671527981e-10  1.0823930873125065e-10  2.5553278476565305e-11  4.8317289553022849e-12  7.3166316822517626e-13  8.8740868432632819e-14  8.6126255015287285e-15  6.7128616724578968e-16  4.1340036322897431e-17  2.1706837183587018e-18  6.3011959970335967e-20  6.3818584352004285e-21  -5.7117284353992220e-22  1.4303306875277704e-22  -1.1594815587905060e-11  -1.4292580373390482e-11  5.0007512341185354e-11  5.3424462795267912e-11  -1.3096652813355684e-10  1.3983474769716977e-10  2.0670044524048351e-09  6.9297046123133130e-09  1.7088742886603440e-08  3.5522811898787384e-08  6.1140957352252952e-08  8.5038649016142233e-08  9.4808375187517552e-08  8.4655166405228879e-08  6.0566818557170177e-08  3.4727866347496830e-08  1.5956797404781865e-08  5.8743292033253183e-09  1.7323686182483319e-09  4.0919407911282474e-10  7.7407191132129186e-11  1.1726604419062278e-11  1.4224546759069982e-12  1.3819071867345727e-13  1.0740532549301002e-14  6.7037468314325851e-16  3.3080432294637790e-17  1.3790484665825324e-18  3.6026946475804460e-20  1.6299907392438709e-21  2.2789953676009221e-22  -2.8208682964679121e-11  6.1010696172516794e-11  5.4214927709932467e-12  -1.2539789726429583e-10  1.2219800375133951e-09  6.6240513110843609e-09  2.3162402088939219e-08  7.4654943865274100e-08  2.0478906349995224e-07  4.4876781024013057e-07  7.8059777782404106e-07  1.0839687012377359e-06  1.2060108501021345e-06  1.0762341176451428e-06  7.7035638916993974e-07  4.4214982703222477e-07  2.0340896246858332e-07  7.4977670862744712e-08  2.2137272147411035e-08  5.2342821539838504e-09  9.9101164959157108e-10  1.5022915523493611e-10  1.8234020671404020e-11  1.7717641583406011e-12  1.3786140072157044e-13  8.5812365313506052e-15  4.2869109360235070e-16  1.6995441869897444e-17  5.5109678707626942e-19  1.5071066911411303e-20  -8.9814343581956285e-22  9.8376868788097016e-11  2.0305780077157983e-12  -7.5843326271146109e-11  2.1384179429337942e-09  1.1408034434009239e-08  5.2684169633161391e-08  2.2923543081031730e-07  7.9083915508712767e-07  2.1331830964495126e-06  4.5825921143326738e-06  7.8997018773237697e-06  1.0937464320618433e-05  1.2160412473459716e-05  1.0856476548822289e-05  7.7814507047461791e-06  4.4754660979797621e-06  2.0639564229658930e-06  7.6265749591774473e-07  2.2567537281707698e-07  5.3459015307855664e-08  1.0136240002855031e-08  1.5383143599423230e-09  1.8686635853327763e-10  1.8170518784558163e-11  1.4142241564644734e-12  8.8124440991950977e-14  4.3932737414311568e-15  1.7547965882900428e-16  5.6258871370833852e-18  1.3483312732269838e-19  6.5140087457901104e-21  9.4565027263590506e-11  -1.4578524766247970e-10  2.1397034447279427e-09  1.3635610770046978e-08  8.2327344542087888e-08  4.5510902794262196e-07  1.9236862827809448e-06  6.3992972355380049e-06  1.7103363287556910e-05  3.6707563379138093e-05  6.3146868954996372e-05  8.7163226918574878e-05  9.6725752754039907e-05  8.6389553349716934e-05  6.2086726198191535e-05  3.5860178658354155e-05  1.6617989720470493e-05  6.1693914442562923e-06  1.8329757427266083e-06  4.3561197235103499e-07  8.2798488940777480e-08  1.2588345931192421e-08  1.5311657489694373e-09  1.4902241781098171e-10  1.1607159989400291e-11  7.2351144975509834e-13  3.6097174119335624e-14  1.4416248565494816e-15  4.5937113873441807e-17  1.2034053648863656e-18  1.8568169060841263e-20  -3.4658453164518957e-10  1.2370984017964145e-09  1.1363761522094057e-08  8.2137235048944391e-08  5.6994221602332874e-07  2.9794643985882219e-06  1.2340570696796106e-05  4.1153336349756475e-05  1.0958751491339298e-04  2.3275757565329838e-04  3.9596480154086185e-04  5.4212363003778457e-04  5.9949735234212037e-04  5.3626010186724532e-04  3.8766114187727563e-04  2.2582797555020009e-04  1.0563735494930133e-04  3.9560943052537456e-05  1.1839093692837383e-05  2.8291696473048565e-06  5.3989598621700503e-07  8.2311463875213244e-08  1.0030767318064648e-08  9.7753326931650596e-10  7.6206095583509789e-11  4.7533860349343062e-12  2.3725731913629558e-13  9.4744206916509176e-15  3.0320603571686840e-16  7.7129546743747591e-18  1.5429106189715489e-19  -1.5137994339616652e-10  6.6638126196677485e-09  5.2283783891148654e-08  4.5340772244057876e-07  2.9746728813423126e-06  1.5355516535056377e-05  6.3807848151378497e-05  2.1029111777418711e-04  5.4945212090598192e-04  1.1447631755194386e-03  1.9138271805031553e-03  2.5861113078928881e-03  2.8435586228902948e-03  2.5522541409443763e-03  1.8663732166654000e-03  1.1052759455818391e-03  5.2619316661419260e-04  2.0018548358462606e-04  6.0660215269533216e-05  1.4627863260092776e-05  2.8088355624406081e-06  4.2998454238052352e-07  5.2539131556629439e-08  5.1290187111032372e-09  4.0031249176716277e-10  2.4989406652500477e-11  1.2479324379935842e-12  4.9868385966717024e-14  1.5938998405179128e-15  4.0716458408744506e-17  8.8319265910429291e-19  2.3330327228415547e-09  2.2899885725329844e-08  2.2727256796048501e-07  1.9140391097592652e-06  1.2305391989908997e-05  6.3736670950503707e-05  2.6087574475685594e-04  8.4033167342133946e-04  2.1399469554521685e-03  4.3257921590096823e-03  7.0107435138597957e-03  9.2492915904703460e-03  1.0068672907017020e-02  9.0962485651649456e-03  6.7923191643951978e-03  4.1428462630443402e-03  2.0343518608462985e-03  7.9508883188596105e-04  2.4590974825858388e-04  6.0143561893594461e-05  1.1655024607491793e-05  1.7944566431708668e-06  2.2004377677265582e-07  2.1529337369620954e-08  1.6827421740959185e-09  1.0514334209953011e-10  5.2542793866354252e-12  2.1002890227485365e-13  6.7147614191507984e-15  1.7224061384520277e-16  3.4257953239865663e-18  7.7432307612048481e-09  7.3356723706815696e-08  7.8343608601673856e-07  6.3602111339758262e-06  4.1006014435628684e-05  2.0993392367523879e-04  8.3988141585023175e-04  2.6294493458305511e-03  6.4288404830829642e-03  1.2358239961753677e-02  1.9093249403119801e-02  2.4362107664482407e-02  2.6201640114930331e-02  2.3930897745975451e-02  1.8437690629421598e-02  1.1759859562907727e-02  6.0578859549958314e-03  2.4683587801435486e-03  7.8739878882757165e-04  1.9655917854782565e-04  3.8574525606140900e-05  5.9840669353099311e-06  7.3709414678729017e-07  7.2313983447782921e-08  5.6615988176489183e-09  3.5414311411978961e-10  1.7709881142363517e-11  7.0820516435629498e-13  2.2661408666337005e-14  5.7958727872782385e-16  1.1684766123336858e-17  1.7531540381342819e-08  2.0118432425158834e-07  2.1111251253048683e-06  1.6988118389949839e-05  1.0916850896027706e-04  5.4846626580172205e-04  2.1388354798695759e-03  6.4292288666918914e-03  1.4825673765294724e-02  2.6738600950235256e-02  3.9177967018058819e-02  4.8383266119818767e-02  5.1513675612511814e-02  4.7611878326016224e-02  3.7924664046537458e-02  2.5466017245236963e-02  1.3928658807276456e-02  5.9967324360317180e-03  1.9936827198745884e-03  5.1117696217457679e-04  1.0192267809071229e-04  1.5956090190515779e-05  1.9757416283566261e-06  1.9442965766646784e-07  1.5250729233027646e-08  9.5508826128910966e-10  4.7796302127276979e-11  1.9125124534313291e-12  6.1211917028446767e-14  1.5618104347423278e-15  3.2671037245135596e-17  3.4845391426504483e-08  4.4085221095924952e-07  4.5318278633726915e-06  3.6455321368124931e-05  2.3191046558097684e-04  1.1431417508110829e-03  4.3257830332191797e-03  1.2365641055422715e-02  2.6752032955138623e-02  4.5455157683267897e-02  6.3898945327950193e-02  7.7305915212492901e-02  8.1925651929083368e-02  7.6317546353605950e-02  6.2201001622374165e-02  4.3561545570844788e-02  2.5235926282828215e-02  1.1526955810387750e-02  4.0162542905316659e-03  1.0615665609219440e-03  2.1542921717733354e-04  3.4060026432002138e-05  4.2408269841304089e-06  4.1866270443266229e-07  3.2902403014951725e-08  2.0629404923297449e-09  1.0331697884025194e-10  4.1370219944592022e-12  1.3229154265427967e-13  3.3851861497565930e-15  7.4628640595544220e-17  5.9330950469527629e-08  7.6649681122622912e-07  7.8102323821940164e-06  6.2732440786137525e-05  3.9475712775581713e-04  1.9126585326678762e-03  7.0171013621073740e-03  1.9121112004176717e-02  3.9226862255966097e-02  6.3941393624448381e-02  8.7999395401207950e-02  1.0591868762808435e-01  1.1237030865559648e-01  1.0492517302392025e-01  8.6208432919999536e-02  6.1777225796672622e-02  3.7292770692195873e-02  1.7903838181789995e-02  6.5122136326468049e-03  1.7711796319798401e-03  3.6540948243593259e-04  5.8303780462145514e-05  7.2963002551849027e-06  7.2242633665375685e-07  5.6875400643123271e-08  3.5696784075186862e-09  1.7894662445672183e-10  7.1658752166192183e-12  2.2891770567845615e-13  5.9855583385458064e-15  1.0313112761950309e-16  8.2481261512530851e-08  1.0641708593977355e-06  1.0816819992011621e-05  8.6653263436467924e-05  5.4099308734371703e-04  2.5875262670711058e-03  9.2688409193812712e-03  2.4424432124354061e-02  4.8488011238155111e-02  7.7415997960684158e-02  1.0599069037305633e-01  1.2806068700170628e-01  1.3635036712169910e-01  1.2723076585928955e-01  1.0442420144064668e-01  7.5378449014273555e-02  4.6484311704920789e-02  2.3019535780658247e-02  8.6208495412724555e-03  2.3918006088403097e-03  4.9925522268640045e-04  8.0191379660462701e-05  1.0072674393729413e-05  9.9965404214891165e-07  7.8801148744578674e-08  4.9505761011777237e-09  2.4841383881030502e-10  9.9250999536265845e-12  3.2063629105202665e-13  8.2232804055532997e-15  4.5847180737147620e-17  9.2056095754236479e-08  1.1845094576446795e-06  1.2036208668393873e-05  9.6264656059479283e-05  5.9902050932167589e-04  2.8492263383694911e-03  1.0104812966515020e-02  2.6304490352379337e-02  5.1685406977357906e-02  8.2121805087324765e-02  1.1254064161672937e-01  1.3645678437454328e-01  1.4563906478552782e-01  1.3586809246083134e-01  1.1136369020652286e-01  8.0461261944115486e-02  4.9900210997061836e-02  2.4943098741100525e-02  9.4249989762547181e-03  2.6303872568179316e-03  5.5124716578248219e-04  8.8770671415949279e-05  1.1168547554433993e-05  1.1099842890406237e-06  8.7522925959579818e-08  5.5081358323227383e-09  2.7592192367469097e-10  1.1031781420947400e-11  3.6735551536701582e-13  6.7303183960514273e-15  5.6884543953705776e-16  8.2328140141680355e-08  1.0583075417539258e-06  1.0759522958795117e-05  8.6099337118766581e-05  5.3666852345202675e-04  2.5616685909447367e-03  9.1449933655307833e-03  2.4066675819362074e-02  4.7847633034341260e-02  7.6609908778059080e-02  1.0521956916238401e-01  1.2748569719844330e-01  1.3603443287372466e-01  1.2713851695212683e-01  1.0444905300229525e-01  7.5392416976215015e-02  4.6421357706983073e-02  2.2918264298746993e-02  8.5457746748449012e-03  2.3619323640626795e-03  4.9270429648712798e-04  7.9160139544555782e-05  9.9540117712918744e-06  9.8930147403572112e-07  7.7941259276387522e-08  4.9252297622570389e-09  2.4332750402517326e-10  1.0188339215472790e-11  3.0026275841953556e-13  4.3756215253508510e-15  2.5411116370719634e-15  5.9043270708904785e-08  7.5892631089777582e-07  7.7249045050437121e-06  6.1981288823928141e-05  3.8863773523604511e-04  1.8768169597026063e-03  6.8428712152554675e-03  1.8583722429309144e-02  3.8199834706640769e-02  6.2578921866838041e-02  8.6636892922902969e-02  1.0485874159119747e-01  1.1175027718814161e-01  1.0469582130997888e-01  8.6182843725249370e-02  6.1741367681089121e-02  3.7155244248721159e-02  1.7731288889539124e-02  6.3963132417409778e-03  1.7284548350178098e-03  3.5632435188966111e-04  5.6851996217936637e-05  7.1357054196874456e-06  7.0719227404417723e-07  5.5757155338789628e-08  3.5335000718509063e-09  1.6880238425938963e-10  8.4965330783789335e-12  -1.0106695542016077e-15  3.3496540805513280e-14  -2.3876177487825470e-15  3.3961919230261738e-08  4.3659929774961650e-07  4.4515632551382240e-06  3.5864594282006019e-05  2.2682019174990472e-04  1.1137224203846489e-03  4.1833873001845935e-03  1.1885309139811524e-02  2.5730382950186419e-02  4.3972585083240638e-02  6.2300322666923008e-02  7.5968806251401358e-02  8.1058945761443083e-02  7.5895296070529583e-02  6.2022622861483162e-02  4.3409264016545226e-02  2.5033170246940378e-02  1.1335700675724619e-02  3.9062823335609632e-03  1.0254720252558444e-03  2.0796443590627550e-04  3.2851112468897999e-05  4.1161631921602662e-06  4.0426264830340256e-07  3.2322610498159359e-08  1.9821482587481237e-09  9.8590984762228392e-11  5.8695855857241072e-12  -4.0172531112542885e-13  1.2126421870770617e-13  -3.5218353728196170e-14  1.5661289550100303e-08  2.0136990831022083e-07  2.0571619060269831e-06  1.6651134709109980e-05  1.0630074183366510e-04  5.3129996767334428e-04  2.0592143274625750e-03  6.1408894691498388e-03  1.4125730838540941e-02  2.5586410076493593e-02  3.7795555344767584e-02  4.7105808231478412e-02  5.0576254297027216e-02  4.7043583802150041e-02  3.7592669855743881e-02  2.5218791294642492e-02  1.3712051008659651e-02  5.8410394159649874e-03  1.9204144120360711e-03  4.9002575520960226e-04  9.7537874045580607e-05  1.5264786368686095e-05  1.9076481593781787e-06  1.8418453511845447e-07  1.5482851467755703e-08  7.7300271188932715e-10  6.9996610828510963e-11  -4.7886464177408988e-13  -5.0964114158039601e-14  1.3651876955430322e-13  -7.7001233643438107e-14  5.7866604130548433e-09  7.4417947652344441e-08  7.6169413721974688e-07  6.1928324221315276e-06  3.9879775160423062e-05  2.0251400509822403e-04  8.0662404405292887e-04  2.5093945953596855e-03  6.1045437753702858e-03  1.1743182812556553e-02  1.8250503765382516e-02  2.3483911934076094e-02  2.5471774723081392e-02  2.3417348565140401e-02  1.8097278118727435e-02  1.1522583209589368e-02  5.8940559587658805e-03  2.3773074384816880e-03  7.5265074732756702e-04  1.8732927565388548e-04  3.6617347947075102e-05  5.7099230133370629e-06  7.0457511921990834e-07  6.7644645125143960e-08  6.1216945036187981e-09  1.2614418294940230e-10  7.0426189165071749e-11  -1.0201843986270168e-11  1.7863461524282377e-12  -1.9978889260008505e-13  -8.5128533506363051e-15  1.7123329450459044e-09  2.2025277981955164e-08  2.2581440278258185e-07  1.8429254972382795e-06  1.1952947503008849e-05  6.1465335617946502e-05  2.4994628904674029e-04  8.0238843443332895e-04  2.0358869633505272e-03  4.1084107793363965e-03  6.6725335188896895e-03  8.8485284328588890e-03  9.6909240935029069e-03  8.7962444077663640e-03  6.5780301159222366e-03  4.0013417163572837e-03  1.9531883399724090e-03  7.5884299299004579e-04  2.3384624925892623e-04  5.6932256158354744e-05  1.1012931833438974e-05  1.7151962924943403e-06  2.0449764358042868e-07  2.1217008432182908e-08  1.6933611034140157e-09  -9.5460650046064528e-12  5.2830621625708712e-11  -1.4736624396445691e-11  3.7837678464478297e-12  -8.3529060430890570e-13  2.5827755569996355e-13  4.0565985623749513e-10  5.2188808822503728e-09  5.3578814246730917e-08  4.3856862438084076e-07  2.8598829990099583e-06  1.4840126902380894e-05  6.1212972670589603e-05  2.0062562629481835e-04  5.2307737133987990e-04  1.0888056735143771e-03  1.8207157523057948e-03  2.4642147462335660e-03  2.7154894283886784e-03  2.4409849086582916e-03  1.7846528251481838e-03  1.0548344992141565e-03  5.0082960057650503e-04  1.8997284746820464e-04  5.7293531593924399e-05  1.3764459666399595e-05  2.6663090050212310e-06  4.0514298441343637e-07  4.7897206433630234e-08  5.8713636880366045e-09  8.3364248999016741e-11  6.7545027923180940e-11  8.4095174634494471e-12  -7.7321897789821334e-12  3.3455534186530213e-12  -1.1149247854609856e-12  5.2948694611298021e-13  7.6924855407352352e-11  9.8981996992009132e-10  1.0172079481647199e-08  8.3444946169672352e-08  5.4621690631613935e-07  2.8517382015672111e-06  1.1870993746750299e-05  3.9403864044608447e-05  1.0439141743011621e-04  2.2119333051576410e-04  3.7606515677744966e-04  5.1493391641961757e-04  5.6956098829192853e-04  5.0946552601979138e-04  3.6808311074841104e-04  2.1412548204514166e-04  9.9882653446658535e-05  3.7241210157603855e-05  1.1121488173716389e-05  2.6773180179813806e-06  5.0961077466624570e-07  7.4309179778895375e-08  1.0445083912582046e-08  9.4998924854572788e-10  -7.2933215429302772e-11  7.4865534907818963e-11  -1.9406072017079113e-11  2.6782838388175185e-12  5.8273686763409721e-13  -5.9001638550840816e-13  4.6498480544505628e-13  1.1675599814932070e-11  1.5024599352285924e-10  1.5451658324369797e-09  1.2694647452683810e-08  8.3310124129142848e-08  4.3666315672664766e-07  1.8279294451085975e-06  6.1127752055822774e-06  1.6340881297221973e-05  3.4962452233482448e-05  5.9974058614556858e-05  8.2637271770438553e-05  9.1595711783944251e-05  8.1707407977466855e-05  5.8614436385427778e-05  3.3766913924439865e-05  1.5614670702002749e-05  5.8073618428820738e-06  1.7355442782622016e-06  4.0825314493579850e-07  7.4487986452897480e-08  1.2555716449812071e-08  1.7701138751790521e-09  -1.0038040869077691e-10  6.6995397962871605e-11  7.9792941595088846e-12  -1.1100614852673118e-11  4.9024650911226454e-12  -1.3081208607488623e-12  1.7218215616377297e-13  9.0785627225053417e-14  1.4180791122109723e-12  1.8252000296823978e-11  1.8779543630541009e-10  1.5444538520345359e-09  1.0152333594343766e-08  5.3342470963586282e-08  2.2404573820387622e-07  7.5243181388545138e-07  2.0214847344344702e-06  4.3477451786545219e-06  7.4929672413191673e-06  1.0357628219080746e-05  1.1492707054970780e-05  1.0241218315815525e-05  7.3317436926017984e-06  4.2184395927955009e-06  1.9485148884533446e-06  7.1701885938772508e-07  2.0705146484740343e-07  4.8069151265504671e-08  1.0434459270835437e-08  1.7845922195055126e-09  -6.9574889168144864e-11  3.3247525413518433e-11  3.5001241002816835e-11  -1.6874189213453369e-11  3.0419306716273897e-12  8.3941118015423230e-13  -8.3923623665864152e-13  3.6436384645445280e-13  -1.7337475406973120e-13  1.3790671069770694e-13  1.7742900554686251e-12  1.8263013462714422e-11  1.5029060217905028e-10  9.8895121041095842e-10  5.2037941347216370e-09  2.1899472630476753e-08  7.3724620851866969e-08  1.9861179418028980e-07  4.2836609644114888e-07  7.4010080188099331e-07  1.0249431997123952e-06  1.1383571205413001e-06  1.0141572029300542e-06  7.2405890188653610e-07  4.1294127851252806e-07  1.8734565805983223e-07  6.8305797548786315e-08  2.1275411346380815e-08  5.9316675383603600e-09  9.9145662878060683e-10  -9.966445689