<?xml version="1.0"?>
<VTKFile type="UnstructuredGrid"  version="0.1"  >
<UnstructuredGrid>
<Piece  NumberOfPoints="961" NumberOfCells="1800">
<Points>
<DataArray  type="Float64"  NumberOfComponents="3"  format="ascii">0 0 0  0.03333333333333333 0 0  0.06666666666666667 0 0  0.1 0 0  0.1333333333333333 0 0  0.1666666666666667 0 0  0.2 0 0  0.2333333333333333 0 0  0.2666666666666667 0 0  0.3 0 0  0.3333333333333333 0 0  0.3666666666666666 0 0  0.4 0 0  0.4333333333333333 0 0  0.4666666666666667 0 0  0.5 0 0  0.5333333333333333 0 0  0.5666666666666667 0 0  0.6 0 0  0.6333333333333333 0 0  0.6666666666666666 0 0  0.7 0 0  0.7333333333333333 0 0  0.7666666666666667 0 0  0.8 0 0  0.8333333333333334 0 0  0.8666666666666667 0 0  0.9 0 0  0.9333333333333333 0 0  0.9666666666666667 0 0  1 0 0  0 0.03333333333333333 0  0.03333333333333333 0.03333333333333333 0  0.06666666666666667 0.03333333333333333 0  0.1 0.03333333333333333 0  0.1333333333333333 0.03333333333333333 0  0.1666666666666667 0.03333333333333333 0  0.2 0.03333333333333333 0  0.2333333333333333 0.03333333333333333 0  0.2666666666666667 0.03333333333333333 0  0.3 0.03333333333333333 0  0.3333333333333333 0.03333333333333333 0  0.3666666666666666 0.03333333333333333 0  0.4 0.03333333333333333 0  0.4333333333333333 0.03333333333333333 0  0.4666666666666667 0.03333333333333333 0  0.5 0.03333333333333333 0  0.5333333333333333 0.03333333333333333 0  0.5666666666666667 0.03333333333333333 0  0.6 0.03333333333333333 0  0.6333333333333333 0.03333333333333333 0  0.6666666666666666 0.03333333333333333 0  0.7 0.03333333333333333 0  0.7333333333333333 0.03333333333333333 0  0.7666666666666667 0.03333333333333333 0  0.8 0.03333333333333333 0  0.8333333333333334 0.03333333333333333 0  0.8666666666666667 0.03333333333333333 0  0.9 0.03333333333333333 0  0.9333333333333333 0.03333333333333333 0  0.9666666666666667 0.03333333333333333 0  1 0.03333333333333333 0  0 0.06666666666666667 0  0.03333333333333333 0.06666666666666667 0  0.06666666666666667 0.06666666666666667 0  0.1 0.06666666666666667 0  0.1333333333333333 0.06666666666666667 0  0.1666666666666667 0.06666666666666667 0  0.2 0.06666666666666667 0  0.2333333333333333 0.06666666666666667 0  0.2666666666666667 0.06666666666666667 0  0.3 0.06666666666666667 0  0.3333333333333333 0.06666666666666667 0  0.3666666666666666 0.06666666666666667 0  0.4 0.06666666666666667 0  0.4333333333333333 0.06666666666666667 0  0.4666666666666667 0.06666666666666667 0  0.5 0.06666666666666667 0  0.5333333333333333 0.06666666666666667 0  0.5666666666666667 0.06666666666666667 0  0.6 0.06666666666666667 0  0.6333333333333333 0.06666666666666667 0  0.6666666666666666 0.06666666666666667 0  0.7 0.06666666666666667 0  0.7333333333333333 0.06666666666666667 0  0.7666666666666667 0.06666666666666667 0  0.8 0.06666666666666667 0  0.8333333333333334 0.06666666666666667 0  0.8666666666666667 0.06666666666666667 0  0.9 0.06666666666666667 0  0.9333333333333333 0.06666666666666667 0  0.9666666666666667 0.06666666666666667 0  1 0.06666666666666667 0  0 0.1 0  0.03333333333333333 0.1 0  0.06666666666666667 0.1 0  0.1 0.1 0  0.1333333333333333 0.1 0  0.1666666666666667 0.1 0  0.2 0.1 0  0.2333333333333333 0.1 0  0.2666666666666667 0.1 0  0.3 0.1 0  0.3333333333333333 0.1 0  0.3666666666666666 0.1 0  0.4 0.1 0  0.4333333333333333 0.1 0  0.4666666666666667 0.1 0  0.5 0.1 0  0.5333333333333333 0.1 0  0.5666666666666667 0.1 0  0.6 0.1 0  0.6333333333333333 0.1 0  0.6666666666666666 0.1 0  0.7 0.1 0  0.7333333333333333 0.1 0  0.7666666666666667 0.1 0  0.8 0.1 0  0.8333333333333334 0.1 0  0.8666666666666667 0.1 0  0.9 0.1 0  0.9333333333333333 0.1 0  0.9666666666666667 0.1 0  1 0.1 0  0 0.1333333333333333 0  0.03333333333333333 0.1333333333333333 0  0.06666666666666667 0.1333333333333333 0  0.1 0.1333333333333333 0  0.1333333333333333 0.1333333333333333 0  0.1666666666666667 0.1333333333333333 0  0.2 0.1333333333333333 0  0.2333333333333333 0.1333333333333333 0  0.2666666666666667 0.1333333333333333 0  0.3 0.1333333333333333 0  0.3333333333333333 0.1333333333333333 0  0.3666666666666666 0.1333333333333333 0  0.4 0.1333333333333333 0  0.4333333333333333 0.1333333333333333 0  0.4666666666666667 0.1333333333333333 0  0.5 0.1333333333333333 0  0.5333333333333333 0.1333333333333333 0  0.5666666666666667 0.1333333333333333 0  0.6 0.1333333333333333 0  0.6333333333333333 0.1333333333333333 0  0.6666666666666666 0.1333333333333333 0  0.7 0.1333333333333333 0  0.7333333333333333 0.1333333333333333 0  0.7666666666666667 0.1333333333333333 0  0.8 0.1333333333333333 0  0.8333333333333334 0.1333333333333333 0  0.8666666666666667 0.1333333333333333 0  0.9 0.1333333333333333 0  0.9333333333333333 0.1333333333333333 0  0.9666666666666667 0.1333333333333333 0  1 0.1333333333333333 0  0 0.1666666666666667 0  0.03333333333333333 0.1666666666666667 0  0.06666666666666667 0.1666666666666667 0  0.1 0.1666666666666667 0  0.1333333333333333 0.1666666666666667 0  0.1666666666666667 0.1666666666666667 0  0.2 0.1666666666666667 0  0.2333333333333333 0.1666666666666667 0  0.2666666666666667 0.1666666666666667 0  0.3 0.1666666666666667 0  0.3333333333333333 0.1666666666666667 0  0.3666666666666666 0.1666666666666667 0  0.4 0.1666666666666667 0  0.4333333333333333 0.1666666666666667 0  0.4666666666666667 0.1666666666666667 0  0.5 0.1666666666666667 0  0.5333333333333333 0.1666666666666667 0  0.5666666666666667 0.1666666666666667 0  0.6 0.1666666666666667 0  0.6333333333333333 0.1666666666666667 0  0.6666666666666666 0.1666666666666667 0  0.7 0.1666666666666667 0  0.7333333333333333 0.1666666666666667 0  0.7666666666666667 0.1666666666666667 0  0.8 0.1666666666666667 0  0.8333333333333334 0.1666666666666667 0  0.8666666666666667 0.1666666666666667 0  0.9 0.1666666666666667 0  0.9333333333333333 0.1666666666666667 0  0.9666666666666667 0.1666666666666667 0  1 0.1666666666666667 0  0 0.2 0  0.03333333333333333 0.2 0  0.06666666666666667 0.2 0  0.1 0.2 0  0.1333333333333333 0.2 0  0.1666666666666667 0.2 0  0.2 0.2 0  0.2333333333333333 0.2 0  0.2666666666666667 0.2 0  0.3 0.2 0  0.3333333333333333 0.2 0  0.3666666666666666 0.2 0  0.4 0.2 0  0.4333333333333333 0.2 0  0.4666666666666667 0.2 0  0.5 0.2 0  0.5333333333333333 0.2 0  0.5666666666666667 0.2 0  0.6 0.2 0  0.6333333333333333 0.2 0  0.6666666666666666 0.2 0  0.7 0.2 0  0.7333333333333333 0.2 0  0.7666666666666667 0.2 0  0.8 0.2 0  0.8333333333333334 0.2 0  0.8666666666666667 0.2 0  0.9 0.2 0  0.9333333333333333 0.2 0  0.9666666666666667 0.2 0  1 0.2 0  0 0.2333333333333333 0  0.03333333333333333 0.2333333333333333 0  0.06666666666666667 0.2333333333333333 0  0.1 0.2333333333333333 0  0.1333333333333333 0.2333333333333333 0  0.1666666666666667 0.2333333333333333 0  0.2 0.2333333333333333 0  0.2333333333333333 0.2333333333333333 0  0.2666666666666667 0.2333333333333333 0  0.3 0.2333333333333333 0  0.3333333333333333 0.2333333333333333 0  0.3666666666666666 0.2333333333333333 0  0.4 0.2333333333333333 0  0.4333333333333333 0.2333333333333333 0  0.4666666666666667 0.2333333333333333 0  0.5 0.2333333333333333 0  0.5333333333333333 0.2333333333333333 0  0.5666666666666667 0.2333333333333333 0  0.6 0.2333333333333333 0  0.6333333333333333 0.2333333333333333 0  0.6666666666666666 0.2333333333333333 0  0.7 0.2333333333333333 0  0.7333333333333333 0.2333333333333333 0  0.7666666666666667 0.2333333333333333 0  0.8 0.2333333333333333 0  0.8333333333333334 0.2333333333333333 0  0.8666666666666667 0.2333333333333333 0  0.9 0.2333333333333333 0  0.9333333333333333 0.2333333333333333 0  0.9666666666666667 0.2333333333333333 0  1 0.2333333333333333 0  0 0.2666666666666667 0  0.03333333333333333 0.2666666666666667 0  0.06666666666666667 0.2666666666666667 0  0.1 0.2666666666666667 0  0.1333333333333333 0.2666666666666667 0  0.1666666666666667 0.2666666666666667 0  0.2 0.2666666666666667 0  0.2333333333333333 0.2666666666666667 0  0.2666666666666667 0.2666666666666667 0  0.3 0.2666666666666667 0  0.3333333333333333 0.2666666666666667 0  0.3666666666666666 0.2666666666666667 0  0.4 0.2666666666666667 0  0.4333333333333333 0.2666666666666667 0  0.4666666666666667 0.2666666666666667 0  0.5 0.2666666666666667 0  0.5333333333333333 0.2666666666666667 0  0.5666666666666667 0.2666666666666667 0  0.6 0.2666666666666667 0  0.6333333333333333 0.2666666666666667 0  0.6666666666666666 0.2666666666666667 0  0.7 0.2666666666666667 0  0.7333333333333333 0.2666666666666667 0  0.7666666666666667 0.2666666666666667 0  0.8 0.2666666666666667 0  0.8333333333333334 0.2666666666666667 0  0.8666666666666667 0.2666666666666667 0  0.9 0.2666666666666667 0  0.9333333333333333 0.2666666666666667 0  0.9666666666666667 0.2666666666666667 0  1 0.2666666666666667 0  0 0.3 0  0.03333333333333333 0.3 0  0.06666666666666667 0.3 0  0.1 0.3 0  0.1333333333333333 0.3 0  0.1666666666666667 0.3 0  0.2 0.3 0  0.2333333333333333 0.3 0  0.2666666666666667 0.3 0  0.3 0.3 0  0.3333333333333333 0.3 0  0.3666666666666666 0.3 0  0.4 0.3 0  0.4333333333333333 0.3 0  0.4666666666666667 0.3 0  0.5 0.3 0  0.5333333333333333 0.3 0  0.5666666666666667 0.3 0  0.6 0.3 0  0.6333333333333333 0.3 0  0.6666666666666666 0.3 0  0.7 0.3 0  0.7333333333333333 0.3 0  0.7666666666666667 0.3 0  0.8 0.3 0  0.8333333333333334 0.3 0  0.8666666666666667 0.3 0  0.9 0.3 0  0.9333333333333333 0.3 0  0.9666666666666667 0.3 0  1 0.3 0  0 0.3333333333333333 0  0.03333333333333333 0.3333333333333333 0  0.06666666666666667 0.3333333333333333 0  0.1 0.3333333333333333 0  0.1333333333333333 0.3333333333333333 0  0.1666666666666667 0.3333333333333333 0  0.2 0.3333333333333333 0  0.2333333333333333 0.3333333333333333 0  0.2666666666666667 0.3333333333333333 0  0.3 0.3333333333333333 0  0.3333333333333333 0.3333333333333333 0  0.3666666666666666 0.3333333333333333 0  0.4 0.3333333333333333 0  0.4333333333333333 0.3333333333333333 0  0.4666666666666667 0.3333333333333333 0  0.5 0.3333333333333333 0  0.5333333333333333 0.33333333333333
[...]
<PointData  Scalars="f_18-0"> 
<DataArray  type="Float64"  Name="f_18-0"  format="ascii">4.5310546922920100e-13  -7.8956442826621400e-14  -1.3005985829629900e-12  -6.9498600689167412e-13  3.0145562891622177e-12  5.3286660765681461e-12  2.7212473443322909e-12  -1.0241712421304777e-12  -8.4582013979875149e-13  2.9181431863067097e-12  7.2058511910514304e-12  1.0258843503007495e-11  1.1355166891521711e-11  1.0159250496762866e-11  7.3124876282551988e-12  4.2183235080638002e-12  1.9499429317908816e-12  7.2251353000662005e-13  2.1451331360943790e-13  5.1005597793439744e-14  9.7108618759792989e-15  1.4802077618254427e-15  1.8058694253682095e-16  1.7633970860748579e-17  1.3763081081394471e-18  8.6740954869322890e-20  4.0622571991172371e-21  2.4466222872447945e-22  -1.1179431511575008e-23  3.1751378507504748e-24  -6.5303091091997145e-25  -4.6367049325053565e-13  -6.3427310547814442e-13  1.2928181322751780e-12  3.0375184078400159e-12  -1.5054251524971591e-12  -8.2999649927685405e-12  -3.8194638856022084e-12  1.7474713030793403e-11  5.3660132309100299e-11  1.0847855699776545e-10  1.8220207609298605e-10  2.5235479609524433e-10  2.8221317880202043e-10  2.5315248190593449e-10  1.8205908206517363e-10  1.0500006960310674e-10  4.8558426082586166e-11  1.8000543819804700e-11  5.3468516462927572e-12  1.2722351027820423e-12  2.4241571548778707e-13  3.6978386511670920e-14  4.5146415654347665e-15  4.4105471729588237e-16  3.4479847099875338e-17  2.1541903055529329e-18  1.0831393928966333e-19  4.2156064259137099e-21  1.4937778117963198e-22  4.8016834267922740e-24  -1.6594043472077410e-24  -7.4841459604569900e-13  2.1749634690491938e-12  5.4291868576596551e-13  -8.4301750334711941e-12  -1.7110317769335061e-12  4.5948799869071506e-11  1.4386558864666874e-10  3.7290971641476544e-10  9.4712839970484678e-10  2.0620114455209221e-09  3.6083430999255233e-09  5.0384832202282225e-09  5.6317090338752665e-09  5.0483944623446317e-09  3.6308053025724953e-09  2.0946520755893466e-09  9.6906176151627929e-10  3.5940207863388318e-10  1.0681835504338389e-10  2.5432366915330451e-11  4.8489677128218294e-12  7.4011251491281234e-13  9.0410171340836244e-14  8.8372922909166186e-15  6.9104414737690735e-16  4.3236844351758545e-17  2.1611302528318145e-18  8.6859729864541822e-20  2.7502864028754717e-21  6.4766396452687596e-23  4.0302746076646956e-24  4.3424216702390571e-12  -1.7013000642659511e-12  -8.3613640153358620e-12  2.4750622858155268e-11  1.1873673128663339e-10  3.8031700705278355e-10  1.5476134568831670e-09  5.5336001214681262e-09  1.5283148473542805e-08  3.3162030405173564e-08  5.7475286115012266e-08  7.9943550562392925e-08  8.9273074759457283e-08  8.0018620267940034e-08  5.7560748062380821e-08  3.3223918085443668e-08  1.5382987924807581e-08  5.7111939587159893e-09  1.6994840142841072e-09  4.0515150648747120e-10  7.7347670180812992e-11  1.1820779297745466e-11  1.4457020709553925e-12  1.4146018932541108e-13  1.1072299251561209e-14  6.9310460080473419e-16  3.4705785415299696e-17  1.3891232931214530e-18  4.4348736530241210e-20  1.1864262979964988e-21  1.8865886696009744e-23  -3.0154744584749832e-12  -7.4651793200630883e-12  4.1931030640655899e-11  1.6681725617068620e-10  8.3941024246771896e-10  4.9537928172279001e-09  2.1614632323797476e-08  7.2367016897174340e-08  1.9385644578060191e-07  4.1810061978227584e-07  7.2438638896971420e-07  1.0071256735647132e-06  1.1238364831147368e-06  1.0069232132298698e-06  7.2447060665677050e-07  4.1850710467521082e-07  1.9403167761074884e-07  7.2161337422951422e-08  2.1515457595058603e-08  5.1400123225626753e-09  9.8336868190446032e-10  1.5059340887256152e-10  1.8452888816413466e-11  1.8086686925891213e-12  1.4177133329486898e-13  8.8857433190488405e-15  4.4526392835178375e-16  1.7836238111091331e-17  5.7211186745874205e-19  1.4559389539163698e-20  2.4363501069097505e-22  -1.8508572801613593e-11  4.3974326989608823e-11  1.8720180495608869e-10  1.3447613566356942e-09  9.9340304943752542e-09  5.2153025458598416e-08  2.1598026763857575e-07  7.2389874102634511e-07  1.9492093919015914e-06  4.2021571394215224e-06  7.2595170639327140e-06  1.0065174539357449e-05  1.1211368753064477e-05  1.0037877318023405e-05  7.2244880002926657e-06  4.1786208954915588e-06  1.9412394320883375e-06  7.2382522260724297e-07  2.1645101512006741e-07  5.1871480096212602e-08  9.9550247049485535e-09  1.5291227250407933e-09  1.8789474269962827e-10  1.8462483420147485e-11  1.4502605784958117e-12  9.1054296187994462e-14  4.5689000477504864e-15  1.8323914915602799e-16  5.8714097085617881e-18  1.4987722373211657e-19  3.4861318024852251e-21  3.8833627541466778e-11  1.6527367000536727e-10  1.3304700821138907e-09  1.2389839904576490e-08  8.0212109366977424e-08  4.1569186169723079e-07  1.7435595193962807e-06  5.8414937191209975e-06  1.5629070252913491e-05  3.3489416992691384e-05  5.7580071558430284e-05  7.9542808638765776e-05  8.8384527790573683e-05  7.9053560733074831e-05  5.6925969860730160e-05  3.2988491377097855e-05  1.5371331283126215e-05  5.7530695136455457e-06  1.7276430152485081e-06  4.1584682679997818e-07  8.0158356069182359e-08  1.2364292789926295e-08  1.5251826967476898e-09  1.5038064876645688e-10  1.1847423136727577e-11  7.4562856452203069e-13  3.7484603992260504e-14  1.5052177863613162e-15  4.8275533200058829e-17  1.2416474937786653e-18  2.4335434945546827e-20  1.6338800465860320e-10  8.0151378082384257e-10  9.7858477794092132e-09  7.9613722229722163e-08  5.1507653586867057e-07  2.6975105565980224e-06  1.1237206698033177e-05  3.7328863187691252e-05  9.9207279546901632e-05  2.1121319805478522e-04  3.6080797104246989e-04  4.9564453643404318e-04  5.4867397219682690e-04  4.9008062710315255e-04  3.5326952177257244e-04  2.0534272397764556e-04  9.6111756161672843e-05  3.6166105909595613e-05  1.0924194739137329e-05  2.6451816268969123e-06  5.1286913546750845e-07  7.9548470782567787e-08  9.8626659333446594e-09  9.7685058860082165e-10  7.7257752078788612e-11  4.8777872799169498e-12  2.4582455156301331e-13  9.8891007715071917e-15  3.1767717715852384e-16  8.1306713752012267e-18  1.6642394325101442e-19  3.4365982098161529e-10  4.7760540284371930e-09  5.0987392504248498e-08  4.0948207535592742e-07  2.6787218939398834e-06  1.3909835206728886e-05  5.7474684964788948e-05  1.8959821694637229e-04  4.9940998934312460e-04  1.0521851389386125e-03  1.7790866374898771e-03  2.4236223153023180e-03  2.6691738112560224e-03  2.3810590296644116e-03  1.7203824007266716e-03  1.0051044557717191e-03  4.7364984893889550e-04  1.7959151208938088e-04  5.4673704009685072e-05  1.3341431128193604e-05  2.6059968153475741e-06  4.0702184219288281e-07  5.0785788758113798e-08  5.0586345004946649e-09  4.0203287962086742e-10  2.5485236342747253e-11  1.2884419668922227e-12  5.1954817495586780e-14  1.6708517487327253e-15  4.2861062422435308e-17  9.0706237938603856e-19  1.3145118982260072e-09  2.0788835905151433e-08  2.0937711894593441e-07  1.7062099569155810e-06  1.1089908225394189e-05  5.7129671246472531e-05  2.3438773925273538e-04  7.6488565274436483e-04  1.9870791128084914e-03  4.1238415308321773e-03  6.8711447954698003e-03  9.2490319522593317e-03  1.0116499450622356e-02  9.0193829198692531e-03  6.5497761260889546e-03  3.8601892575016771e-03  1.8380414035173724e-03  7.0433834358527784e-04  2.1661633980929232e-04  5.3366840187941352e-05  1.0517799502718218e-05  1.6563947121241871e-06  2.0824206254612124e-07  2.0882640816581213e-08  1.6693444746993051e-09  1.0633694072256777e-10  5.3968472329118068e-12  2.1823100281192990e-13  7.0319851024280249e-15  1.8089198611876015e-16  3.6315181980398401e-18  5.0572044108319053e-09  6.8976983343200453e-08  6.9675503514359463e-07  5.6831216112469342e-06  3.6643003721031039e-05  1.8755558086651285e-04  7.6143532095780740e-04  2.4480219178016527e-03  6.2449998035101761e-03  1.2689699307226564e-02  2.0692403499446461e-02  2.7375167505147811e-02  2.9682177726817392e-02  2.6500878820503181e-02  1.9435459395430808e-02  1.1622190403338716e-02  5.6202999121619558e-03  2.1847328800392793e-03  6.8043892644737715e-04  1.6952884662716622e-04  3.3753936557436510e-05  5.3656862773859627e-06  6.8035273805075851e-07  6.8749203183368496e-08  5.5324681773366862e-09  3.5439682208402813e-10  1.8067084431542351e-11  7.3302737561203616e-13  2.3680005287315441e-14  6.0778716255612004e-16  1.2527533946698489e-17  1.4274005628862586e-08  1.8314335284042561e-07  1.8650272741596538e-06  1.5129256559440993e-05  9.6982584387501471e-05  4.9240314782609694e-04  1.9727676495967842e-03  6.2302696251843844e-03  1.5520093046880000e-02  3.0629146040056579e-02  4.8501929345830176e-02  6.2764851182819228e-02  6.7414622275411382e-02  6.0459658083251253e-02  4.5037741710098243e-02  2.7509044900150888e-02  1.3587767150975800e-02  5.3780943586333408e-03  1.6997517592257717e-03  4.2873794550665398e-04  8.6303897423998290e-05  1.3857567418205911e-05  1.7732987188679026e-06  1.8067665556319251e-07  1.4645344470159695e-08  9.4391537376328036e-10  4.8359561479137197e-11  1.9696101533051615e-12  6.3753632644944298e-14  1.6401033977155154e-15  3.5219448803176753e-17  3.0847391350048403e-08  3.9226632614144176e-07  4.0011815401570436e-06  3.2294160710022024e-05  2.0593301088691108e-04  1.0358216976193316e-03  4.0917190068693052e-03  1.2661290061134575e-02  3.0642168316647671e-02  5.8411231659702419e-02  8.9518150452622694e-02  1.1323970319263456e-01  1.2062425011386348e-01  1.0888653621306409e-01  8.2619783411045172e-02  5.1725138970362433e-02  2.6178980271245191e-02  1.0570046619155331e-02  3.3919537656383258e-03  8.6621428799580312e-04  1.7629496950792857e-04  2.8597494882480367e-05  3.6941979597891544e-06  3.7961977202527459e-07  3.1003293940453595e-08  2.0109999708148890e-09  1.0357107116646709e-10  4.2345324334858766e-12  1.3740261775307482e-13  3.5609662782898725e-15  6.9217526451418581e-17  5.3031695323442032e-08  6.7621503599572333e-07  6.8875231935200997e-06  5.5393852979550656e-05  3.5144475457941302e-04  1.7520890783892175e-03  6.8290701069996769e-03  2.0700609836415695e-02  4.8671170963630855e-02  8.9795703360695797e-02  1.3374813867824559e-01  1.6614676030119546e-01  1.7596536327215989e-01  1.5978585475222998e-01  1.2314334527877333e-01  7.8756541216051176e-02  4.0723748477441285e-02  1.6730574763522049e-02  5.4393813928224361e-03  1.4041739903670586e-03  2.8869259034769489e-04  4.7291083458265816e-05  6.1658348613708755e-06  6.3896828520266913e-07  5.2571073326712137e-08  3.4315800700647951e-09  1.7764368383252868e-10  7.2895593797715444e-12  2.3762022149642283e-13  6.1100551540703201e-15  1.1582578809566448e-16  7.3347424270360811e-08  9.3712542005028229e-07  9.5296719447418504e-06  7.6464464770852235e-05  4.8313380076291280e-04  2.3923925176864615e-03  9.2279875614319842e-03  2.7522497836724294e-02  6.3326189220498333e-02  1.1420253094834419e-01  1.6701386875777702e-01  2.0526828805578676e-01  2.1672643000041564e-01  1.9742946634085365e-01  1.5343110618951411e-01  9.9278796431995706e-02  5.1945972551100887e-02  2.1545038084583943e-02  7.0579673474761304e-03  1.8357164242892117e-03  3.8054027268677140e-04  6.2882179015856377e-05  8.2690609115193146e-06  8.6364713241818573e-07  7.1544172685293459e-08  4.6974171395797953e-09  2.4426255722893473e-10  1.0066184569712315e-11  3.2887346418652380e-13  8.2854206161200755e-15  2.3791447269844633e-16  8.1700941950413579e-08  1.0442931494397538e-06  1.0610254730335004e-05  8.5031886748213791e-05  5.3606615061706155e-04  2.6455270007896075e-03  1.0152266948203110e-02  3.0055521269037537e-02  6.8550118010700573e-02  1.2261092157670228e-01  1.7824585992773667e-01  2.1836593380404382e-01  2.3025746110406928e-01  2.0967007392092038e-01  1.6289478695752932e-01  1.0531903470330264e-01  5.5019889497710833e-02  2.2782649514397537e-02  7.4638494200646791e-03  1.9469684997510373e-03  4.0577081634736174e-04  6.7507984478829745e-05  8.9407062099838726e-06  9.3991140492397145e-07  7.8316776053455198e-08  5.1661895018237171e-09  2.6966505009631845e-10  1.1168357934122295e-11  3.6073607333870891e-13  9.7432940894089537e-15  2.5663986648770957e-16  7.3242919694498367e-08  9.3609994171597929e-07  9.5102195464749098e-06  7.6218825797023029e-05  4.8055539584385647e-04  2.3728543249799138e-03  9.1185207405294136e-03  2.7081615633106845e-02  6.2127438583118054e-02  1.1193256455687167e-01  1.6373737905934899e-01  2.0126652551123420e-01  2.1218040228698734e-01  1.9238857743911286e-01  1.4814813873068236e-01  9.4536737968687737e-02  4.8663727021703976e-02  1.9903592737569260e-02  6.4748121717538428e-03  1.6858645863168391e-03  3.5195305724332505e-04  5.8784848485172494e-05  7.8215363945823581e-06  8.2593457532645069e-07  6.9109100072753518e-08  4.5703482011977260e-09  2.3974653827806248e-10  9.9008206869693962e-12  3.1855474059427628e-13  1.0475510427409705e-14  -4.9273016633064938e-16  5.2811917791231403e-08  6.7495729187555156e-07  6.8611121526029302e-06  5.5058347216677414e-05  3.4795519295643886e-04  1.7252608913585503e-03  6.6781410139808636e-03  2.0079377691410639e-02  4.6904267211198863e-02  8.6264430368372100e-02  1.2838696445643777e-01  1.5935075523269063e-01  1.6813646301353180e-01  1.5123286484329770e-01  1.1452733814359450e-01  7.1408153433513005e-02  3.5878412794735325e-02  1.4395879922319230e-02  4.6287896951237185e-03  1.1981099255706901e-03  2.4956784099060893e-04  4.1696088547986823e-05  5.5535152729301580e-06  5.8753905860796521e-07  4.9228756168784171e-08  3.2572520118206197e-09  1.7221146223267181e-10  6.8618866845350956e-12  2.6067725636008827e-13  4.3795152887559875e-15  -6.9177645120273266e-16  3.0608445479004852e-08  3.9125551522707736e-07  3.9815201845482720e-06  3.2024761125717787e-05  2.0321699562667281e-04  1.0144515517407273e-03  3.9704520636185117e-03  1.2149993965626918e-02  2.9099219601284539e-02  5.5082092104369061e-02  8.4078822007780232e-02  1.0596093632072368e-01  1.1206493958355555e-01  9.9727427832162416e-02  7.3889391656900796e-02  4.4786130181517989e-02  2.1895990530271719e-02  8.6068449490985296e-03  2.7306775993935829e-03  7.0052231332472974e-04  1.4507606161283737e-04  2.4146688866354288e-05  3.2059403506419063e-06  3.3896450784099683e-07  2.8288064241500415e-08  1.8804112349337680e-09  9.8826795054289648e-11  3.7346566086163901e-12  2.2509853403549106e-13  -1.5215167333357598e-14  4.7489955676072268e-15  1.4247059354733233e-08  1.8218317152923134e-07  1.8565983089033455e-06  1.4978412545592864e-05  9.5537519526894449e-05  4.8082299379723130e-04  1.9056983701306585e-03  5.9421931507151722e-03  1.4602764118806314e-02  2.8484357281132886e-02  4.4698900244104334e-02  5.7352126613165605e-02  6.0891174238292080e-02  5.3619046830752519e-02  3.8878325518569581e-02  2.2957017084487746e-02  1.0962240690376121e-02  4.2338095578499527e-03  1.3256586453995456e-03  3.3644749313845187e-04  6.9088184669063461e-05  1.1407604716728016e-05  1.5048331717749190e-06  1.5856446604706233e-07  1.3075375091290424e-08  8.9305485038543766e-10  4.1775383978805992e-11  2.2391830935630908e-12  8.7700969557982400e-14  -2.2784119017735422e-14  1.3198116942040198e-14  5.3205308383524031e-09  6.8074372283923436e-08  6.9485413357418496e-07  5.6246376276919231e-06  3.6075632631026140e-05  1.8310551702580905e-04  7.3473525701730385e-04  2.3308634936213915e-03  5.8581473135088094e-03  1.1725476027183272e-02  1.8852844386796713e-02  2.4597852939006959e-02  2.6244458295993069e-02  2.2943843937728140e-02  1.6377653254572563e-02  9.4963735103785040e-03  4.4623196504726039e-03  1.7006501275651832e-03  5.2607240595168073e-04  1.3204693243892450e-04  2.6832014535119300e-05  4.3795632684828957e-06  5.7378728537689404e-07  5.9822014107071598e-08  4.8803535445089227e-09  3.5207091046806855e-10  9.3584353956211470e-12  2.3580355749808825e-12  -2.5718294453267079e-13  3.2228026465082363e-14  2.2485744299319889e-15  1.5925802660573146e-09  2.0391150068251793e-08  2.0848029992276658e-07  1.6932591342678205e-06  1.0919631127692952e-05  5.5870991318023504e-05  2.2670918947405091e-04  7.2985923748160591e-04  1.8677193932098999e-03  3.8135186810826982e-03  6.2472951978842818e-03  8.2622919602807557e-03  8.8647119589984648e-03  7.7307854998558368e-03  5.4754896778251242e-03  3.1446354546942100e-03  1.4636703974273252e-03  5.5240766761587099e-04  1.6915531485987801e-04  4.2024564100950416e-05  8.4339221904386166e-06  1.3603979842708763e-06  1.7717562895732876e-07  1.7972998293151477e-08  1.5287882769330594e-09  1.0217018988959827e-10  3.2827898679178583e-13  2.0866091017669612e-12  -5.2857764647993039e-13  1.2681332371715479e-13  -4.0545102805405312e-14  3.8175382048250046e-10  4.8918228170251983e-09  5.0092014461479902e-08  4.0812016253446681e-07  2.6450850960541470e-06  1.3631231950841904e-05  5.5847150755357670e-05  1.8198417038471726e-04  4.7234469674903859e-04  9.7908189879680296e-04  1.6266513348885364e-03  2.1747783568313449e-03  2.3476100515826721e-03  2.0499845845003565e-03  1.4487710220807591e-03  8.2856122612842828e-04  3.8353040258012531e-04  1.4379589682694978e-04  4.3698860219641782e-05  1.0746642948332036e-05  2.1296115344685215e-06  3.4121712652708757e-07  4.3721493164155673e-08  4.3107465213957428e-09  4.2529775754222706e-10  7.5074641962949062e-12  3.3908239808071449e-12  3.7524564629441261e-13  -3.2963178140325066e-13  1.3933640493819301e-13  -7.4084307858187010e-14  7.3229801633569229e-11  9.3910960728018506e-10  9.6297662275728274e-09  7.8674977093897696e-08  5.1211689989587724e-07  2.6553166948369643e-06  1.0966267271423378e-05  3.6087176120232149e-05  9.4718611588570515e-05  1.9864441427414029e-04  3.3368072507595185e-04  4.5016530622190605e-04  4.8893603387616677e-04  4.2826959103149724e-04  3.0282389034026335e-04  1.7295699506875983e-04  7.9848120653751813e-05  2.9814761944150368e-05  8.9982890440410120e-06  2.1908664243692710e-06  4.3125384642744494e-07  6.8574575389474481e-08  8.4223209380575963e-09  9.0957367891571340e-10  8.3521953214848153e-11  -6.5846979316111102e-12  4.5930096445813194e-12  -1.0833039960644927e-12  1.4175538509771736e-13  2.6548465960040421e-14  -4.6042409368220417e-14  1.1234795426802439e-11  1.4417554855687521e-10  1.4801372610333899e-09  1.2120827362230005e-08  7.9181006592532351e-08  4.1259998031527504e-07  1.7150029782619480e-06  5.6877801215989651e-06  1.5060993695132692e-05  3.1878987226698938e-05  5.4025600437979005e-05  7.3443082589151129e-05  8.0232369930387104e-05  7.0544090486108102e-05  4.9979447324756050e-05  2.8556897914251696e-05  1.3164633320859392e-05  4.8954905663884898e-06  1.4684483548607503e-06  3.5624459375337001e-07  6.9817622579479527e-08  1.0712692637312838e-08  1.3448415224861131e-09  1.7572222158101337e-10  -3.7929329176452243e-12  2.3817196408859781e-12  1.1935616561689870e-12  -8.2212425650659479e-13  3.0492633825962044e-13  -7.7933972667582257e-14  1.7562093505305243e-14  1.3779059749802792e-12  1.7691974300371170e-11  1.8180332729914818e-10  1.4915572869832974e-09  9.7714267581349059e-09  5.1115635068379261e-08  2.1352758932253990e-07  7.1243637098972926e-07  1.8994283047641982e-06  4.0496303276539041e-06  6.9118434361189955e-06  9.4564629295053921e-06  1.0385270429795720e-05  9.1665147201484564e-06  6.5088917752270141e-06  3.7204650011631853e-06  1.7128395451067807e-06  6.3600382088129608e-07  1.9086815099348211e-07  4.6057789226240280e-08  8.7286870539791443e-09  1.3530113973853734e-09  2.1108735359510106e-10  8.5017659142862684e-12  -2.1742217387284115e-12  3.1901880278301914e-12  -9.8117044770601269e-13  6.2982769263744310e-14  9.8177482541195402e-14  -6.3988668986253026e-14  4.1677632809460590e-14  1.3504719280455668e-13  1.7346515001149686e-12  1.7838412300170610e-11  1.4655748922031894e-10  9.6216365238728858e-10  5.0478023692299299e-09  2.1164574484590743e-08  7.0932448619454478e-08  1.9008333387416178e-07  4.0750091778007865e-07  6.9938343803687821e-07  9.6182715132258442e-07  1.0609615939591729e-06  9.3960043872493799e-07  6.6873613944061369e-07  3.8296087384405888e-07  1.7668220967423924e-07  6.5601064554978012e-08  1.9422888187692673e-08  4.5428015874090481e-09  9.0231593446072604e-10  1.7179999574681799e-10  