<?xml version="1.0"?>
<VTKFile type="UnstructuredGrid"  version="0.1"  >
<UnstructuredGrid>
<Piece  NumberOfPoints="441" NumberOfCells="800">
<Points>
<DataArray  type="Float64"  NumberOfComponents="3"  format="ascii">-2 -2 0  -1.8 -2 0  -1.6 -2 0  -1.4 -2 0  -1.2 -2 0  -1 -2 0  -0.8 -2 0  -0.6000000000000001 -2 0  -0.3999999999999999 -2 0  -0.2 -2 0  0 -2 0  0.2000000000000002 -2 0  0.3999999999999999 -2 0  0.6000000000000001 -2 0  0.7999999999999998 -2 0  1 -2 0  1.2 -2 0  1.4 -2 0  1.6 -2 0  1.8 -2 0  2 -2 0  -2 -1.8 0  -1.8 -1.8 0  -1.6 -1.8 0  -1.4 -1.8 0  -1.2 -1.8 0  -1 -1.8 0  -0.8 -1.8 0  -0.6000000000000001 -1.8 0  -0.3999999999999999 -1.8 0  -0.2 -1.8 0  0 -1.8 0  0.2000000000000002 -1.8 0  0.3999999999999999 -1.8 0  0.6000000000000001 -1.8 0  0.7999999999999998 -1.8 0  1 -1.8 0  1.2 -1.8 0  1.4 -1.8 0  1.6 -1.8 0  1.8 -1.8 0  2 -1.8 0  -2 -1.6 0  -1.8 -1.6 0  -1.6 -1.6 0  -1.4 -1.6 0  -1.2 -1.6 0  -1 -1.6 0  -0.8 -1.6 0  -0.6000000000000001 -1.6 0  -0.3999999999999999 -1.6 0  -0.2 -1.6 0  0 -1.6 0  0.2000000000000002 -1.6 0  0.3999999999999999 -1.6 0  0.6000000000000001 -1.6 0  0.7999999999999998 -1.6 0  1 -1.6 0  1.2 -1.6 0  1.4 -1.6 0  1.6 -1.6 0  1.8 -1.6 0  2 -1.6 0  -2 -1.4 0  -1.8 -1.4 0  -1.6 -1.4 0  -1.4 -1.4 0  -1.2 -1.4 0  -1 -1.4 0  -0.8 -1.4 0  -0.6000000000000001 -1.4 0  -0.3999999999999999 -1.4 0  -0.2 -1.4 0  0 -1.4 0  0.2000000000000002 -1.4 0  0.3999999999999999 -1.4 0  0.6000000000000001 -1.4 0  0.7999999999999998 -1.4 0  1 -1.4 0  1.2 -1.4 0  1.4 -1.4 0  1.6 -1.4 0  1.8 -1.4 0  2 -1.4 0  -2 -1.2 0  -1.8 -1.2 0  -1.6 -1.2 0  -1.4 -1.2 0  -1.2 -1.2 0  -1 -1.2 0  -0.8 -1.2 0  -0.6000000000000001 -1.2 0  -0.3999999999999999 -1.2 0  -0.2 -1.2 0  0 -1.2 0  0.2000000000000002 -1.2 0  0.3999999999999999 -1.2 0  0.6000000000000001 -1.2 0  0.7999999999999998 -1.2 0  1 -1.2 0  1.2 -1.2 0  1.4 -1.2 0  1.6 -1.2 0  1.8 -1.2 0  2 -1.2 0  -2 -1 0  -1.8 -1 0  -1.6 -1 0  -1.4 -1 0  -1.2 -1 0  -1 -1 0  -0.8 -1 0  -0.6000000000000001 -1 0  -0.3999999999999999 -1 0  -0.2 -1 0  0 -1 0  0.2000000000000002 -1 0  0.3999999999999999 -1 0  0.6000000000000001 -1 0  0.7999999999999998 -1 0  1 -1 0  1.2 -1 0  1.4 -1 0  1.6 -1 0  1.8 -1 0  2 -1 0  -2 -0.8 0  -1.8 -0.8 0  -1.6 -0.8 0  -1.4 -0.8 0  -1.2 -0.8 0  -1 -0.8 0  -0.8 -0.8 0  -0.6000000000000001 -0.8 0  -0.3999999999999999 -0.8 0  -0.2 -0.8 0  0 -0.8 0  0.2000000000000002 -0.8 0  0.3999999999999999 -0.8 0  0.6000000000000001 -0.8 0  0.7999999999999998 -0.8 0  1 -0.8 0  1.2 -0.8 0  1.4 -0.8 0  1.6 -0.8 0  1.8 -0.8 0  2 -0.8 0  -2 -0.6000000000000001 0  -1.8 -0.6000000000000001 0  -1.6 -0.6000000000000001 0  -1.4 -0.6000000000000001 0  -1.2 -0.6000000000000001 0  -1 -0.6000000000000001 0  -0.8 -0.6000000000000001 0  -0.6000000000000001 -0.6000000000000001 0  -0.3999999999999999 -0.6000000000000001 0  -0.2 -0.6000000000000001 0  0 -0.6000000000000001 0  0.2000000000000002 -0.6000000000000001 0  0.3999999999999999 -0.6000000000000001 0  0.6000000000000001 -0.6000000000000001 0  0.7999999999999998 -0.6000000000000001 0  1 -0.6000000000000001 0  1.2 -0.6000000000000001 0  1.4 -0.6000000000000001 0  1.6 -0.6000000000000001 0  1.8 -0.6000000000000001 0  2 -0.6000000000000001 0  -2 -0.3999999999999999 0  -1.8 -0.3999999999999999 0  -1.6 -0.3999999999999999 0  -1.4 -0.3999999999999999 0  -1.2 -0.3999999999999999 0  -1 -0.3999999999999999 0  -0.8 -0.3999999999999999 0  -0.6000000000000001 -0.3999999999999999 0  -0.3999999999999999 -0.3999999999999999 0  -0.2 -0.3999999999999999 0  0 -0.3999999999999999 0  0.2000000000000002 -0.3999999999999999 0  0.3999999999999999 -0.3999999999999999 0  0.6000000000000001 -0.3999999999999999 0  0.7999999999999998 -0.3999999999999999 0  1 -0.3999999999999999 0  1.2 -0.3999999999999999 0  1.4 -0.3999999999999999 0  1.6 -0.3999999999999999 0  1.8 -0.3999999999999999 0  2 -0.3999999999999999 0  -2 -0.2 0  -1.8 -0.2 0  -1.6 -0.2 0  -1.4 -0.2 0  -1.2 -0.2 0  -1 -0.2 0  -0.8 -0.2 0  -0.6000000000000001 -0.2 0  -0.3999999999999999 -0.2 0  -0.2 -0.2 0  0 -0.2 0  0.2000000000000002 -0.2 0  0.3999999999999999 -0.2 0  0.6000000000000001 -0.2 0  0.7999999999999998 -0.2 0  1 -0.2 0  1.2 -0.2 0  1.4 -0.2 0  1.6 -0.2 0  1.8 -0.2 0  2 -0.2 0  -2 0 0  -1.8 0 0  -1.6 0 0  -1.4 0 0  -1.2 0 0  -1 0 0  -0.8 0 0  -0.6000000000000001 0 0  -0.3999999999999999 0 0  -0.2 0 0  0 0 0  0.2000000000000002 0 0  0.3999999999999999 0 0  0.6000000000000001 0 0  0.7999999999999998 0 0  1 0 0  1.2 0 0  1.4 0 0  1.6 0 0  1.8 0 0  2 0 0  -2 0.2000000000000002 0  -1.8 0.2000000000000002 0  -1.6 0.2000000000000002 0  -1.4 0.2000000000000002 0  -1.2 0.2000000000000002 0  -1 0.2000000000000002 0  -0.8 0.2000000000000002 0  -0.6000000000000001 0.2000000000000002 0  -0.3999999999999999 0.2000000000000002 0  -0.2 0.2000000000000002 0  0 0.2000000000000002 0  0.2000000000000002 0.2000000000000002 0  0.3999999999999999 0.2000000000000002 0  0.6000000000000001 0.2000000000000002 0  0.7999999999999998 0.2000000000000002 0  1 0.2000000000000002 0  1.2 0.2000000000000002 0  1.4 0.2000000000000002 0  1.6 0.2000000000000002 0  1.8 0.2000000000000002 0  2 0.2000000000000002 0  -2 0.3999999999999999 0  -1.8 0.3999999999999999 0  -1.6 0.3999999999999999 0  -1.4 0.3999999999999999 0  -1.2 0.3999999999999999 0  -1 0.3999999999999999 0  -0.8 0.3999999999999999 0  -0.6000000000000001 0.3999999999999999 0  -0.3999999999999999 0.3999999999999999 0  -0.2 0.3999999999999999 0  0 0.3999999999999999 0  0.2000000000000002 0.3999999999999999 0  0.3999999999999999 0.3999999999999999 0  0.6000000000000001 0.3999999999999999 0  0.7999999999999998 0.3999999999999999 0  1 0.3999999999999999 0  1.2 0.3999999999999999 0  1.4 0.3999999999999999 0  1.6 0.3999999999999999 0  1.8 0.3999999999999999 0  2 0.3999999999999999 0  -2 0.6000000000000001 0  -1.8 0.6000000000000001 0  -1.6 0.6000000000000001 0  -1.4 0.6000000000000001 0  -1.2 0.6000000000000001 0  -1 0.6000000000000001 0  -0.8 0.6000000000000001 0  -0.6000000000000001 0.6000000000000001 0  -0.3999999999999999 0.6000000000000001 0  -0.2 0.6000000000000001 0  0 0.6000000000000001 0  0.2000000000000002 0.6000000000000001 0  0.3999999999999999 0.6000000000000001 0  0.6000000000000001 0.6000000000000001 0  0.7999999999999998 0.6000000000000001 0  1 0.6000000000000001 0  1.2 0.6000000000000001 0  1.4 0.6000000000000001 0  1.6 0.6000000000000001 0  1.8 0.6000000000000001 0  2 0.6000000000000001 0  -2 0.7999999999999998 0  -1.8 0.7999999999999998 0  -1.6 0.7999999999999998 0  -1.4 0.7999999999999998 0  -1.2 0.7999999999999998 0  -1 0.7999999999999998 0  -0.8 0.7999999999999998 0  -0.6000000000000001 0.7999999999999998 0  -0.3999999999999999 0.7999999999999998 0  -0.2 0.7999999999999998 0  0 0.7999999999999998 0  0.2000000000000002 0.7999999999999998 0  0.3999999999999999 0.7999999999999998 0  0.6000000000000001 0.7999999999999998 0  0.7999999999999998 0.7999999999999998 0  1 0.7999999999999998 0  1.2 0.7999999999999998 0  1.4 0.7999999999999998 0  1.6 0.7999999999999998 0  1.8 0.7999999999999998 0  2 0.7999999999999998 0  -2 1 0  -1.8 1 0  -1.6 1 0  -1.4 1 0  -1.2 1 0  -1 1 0  -0.8 1 0  -0.6000000000000001 1 0  -0.3999999999999999 1 0  -0.2 1 0  0 1 0  0.2000000000000002 1 0  0.3999999999999999 1 0  0.6000000000000001 1 0  0.7999999999999998 1 0  1 1 0  1.2 1 0  1.4 1 0  1.6 1 0  1.8 1 0  2 1 0  -2 1.2 0  -1.8 1.2 0  -1.6 1.2 0  -1.4 1.2 0  -1.2 1.2 0  -1 1.2 0  -0.8 1.2 0  -0.6000000000000001 1.2 0  -0.3999999999999999 1.2 0  -0.2 1.2 0  0 1.2 0  0.2000000000000002 1.2 0  0.3999999999999999 1.2 0  0.6000000000000001 1.2 0  0.7999999999999998 1.2 0  1 1.2 0  1.2 1.2 0  1.4 1.2 0  1.6 1.2 0  1.8 1.2 0  2 1.2 0  -2 1.4 0  -1.8 1.4 0  -1.6 1.4 0  -1.4 1.4 0  -1.2 1.4 0  -1 1.4 0  -0.8 1.4 0  -0.6000000000000001 1.4 0  -0.3999999999999999 1.4 0  -0.2 1.4 0  0 1.4 0  0.2000000000000002 1.4 0  0.3999999999999999 1.4 0  0.6000000000000001 1.4 0  0.7999999999999998 1.4 0  1 1.4 0  1.2 1.4 0  1.4 1.4 0  1.6 1.4 0  1.8 1.4 0  2 1.4 0  -2 1.6 0  -1.8 1.6 0  -1.6 1.6 0  -1.4 1.6 0  -1.2 1.6 0  -1 1.6 0  -0.8 1.6 0  -0.6000000000000001 1.6 0  -0.3999999999999999 1.6 0  -0.2 1.6 0  0 1.6 0  0.2000000000000002 1.6 0  0.3999999999999999 1.6 0  0.6000000000000001 1.6 0  0.7999999999999998 1.6 0  1 1.6 0  1.2 1.6 0  1.4 1.6 0  1.6 1.6 0  1.8 1.6 0  2 1.6 0  -2 1.8 0  -1.8 1.8 0  -1.6 1.8 0  -1.4 1.8 0  -1.2 1.8 0  -1 1.8 0  -0.8 1.8 0  -0.6000000000000001 1.8 0  -0.3999999999999999 1.8 0  -0.2 1.8 0  0 1.8 0  0.2000000000000002 1.8 0  0.3999999999999999 1.8 0  0.6000000000000001 1.8 0  0.7999999999999998 1.8 0  1 1.8 0  1.2 1.8 0  1.4 1.8 0  1.6 1.8 0  1.8 1.8 0  2 1.8 0  -2 2 0  -1.8 2 0  -1.6 2 0  -1.4 2 0  -1.2 2 0  -1 2 0  -0.8 2 0  -0.6000000000000001 2 0  -0.3999999999999999 2 0  -0.2 2 0  0 2 0  0.2000000000000002 2 0  0.3999999999999999 2 0  0.6000000000000001 2 0  0.7999999999999998 2 0  1 2 0  1.2 2 0  1.4 2 0  1.6 2 0  1.8 2 0  2 2 0  </DataArray>
</Points>
<Cells>
[...]
<PointData  Scalars="f_18-0"> 
<DataArray  type="Float64"  Name="f_18-0"  format="ascii">4.2000370199161140e-11  -9.4939356736551034e-11  -2.6027423730464770e-11  5.2406004572709097e-10  5.5670221885281091e-12  -2.6805036152593485e-09  -4.4500959290365079e-09  -2.6030237545206470e-09  7.7742382690198611e-11  5.4800990630562875e-10  -3.0402580502738452e-11  -9.7099449571544455e-11  2.7862525689937124e-11  8.2431215461692226e-12  -7.5952739053717986e-12  1.7855339850382455e-12  3.8409300618250274e-13  -5.1242815734094583e-13  9.5196302689599280e-14  -8.8990272661097406e-14  -2.2367316885888327e-14  -9.2241599606735475e-11  9.5880998492576727e-12  2.6724582534754241e-10  -4.0371722874832952e-10  -1.1582496047410999e-09  2.2197424744026705e-09  8.0440939565290541e-09  7.9481264132267686e-09  2.0472529264869312e-09  -1.2529624051085607e-09  -4.1476527911366193e-10  2.8051614821339652e-10  1.2057981548145194e-11  -5.1218452468382553e-11  1.6354755002810529e-11  1.4171851766014659e-12  -3.1682660619709473e-12  1.3793931611574803e-12  -8.1720784402074428e-14  9.6834104724909941e-14  1.3372603935376950e-13  -5.2521284308688839e-11  2.7239926647737512e-10  -4.5198886361094741e-10  -6.3641333273637315e-10  3.4516928674142668e-09  1.1522708475842660e-09  -1.8681665786335652e-08  -3.2620695575802148e-08  -1.8106971855906126e-08  1.6533334096315070e-09  3.6063075378715273e-09  -6.6282480121950377e-10  -4.9009024688514189e-10  2.5767812542150902e-10  -1.4879724405233117e-11  -3.4097054793955924e-11  1.8216883848402047e-11  -4.1730732216563400e-12  -7.2512871939444814e-13  1.5647194268568108e-13  -7.9569101881492227e-13  5.0694122559452861e-10  -3.2217781538515406e-10  -7.2507705610219372e-10  3.5241998138219968e-09  -2.5688456501192883e-09  -1.7095395369586861e-08  2.4349823325834288e-08  1.0894564772639439e-07  1.0757750347134240e-07  2.2038163069962434e-08  -1.8251780265582498e-08  -2.7092223698012718e-09  3.7042425534436286e-09  -6.5106618915024769e-10  -3.5089927332759535e-10  2.5145949199859841e-10  -6.7981388354401262e-11  -1.3009473409154295e-12  1.0636920292538578e-11  -3.5670997287235037e-12  4.1339043719461805e-12  2.7978536341222346e-10  -1.3122921927936332e-09  3.2436147962917539e-09  -1.9154743431557855e-09  -1.4847631070735471e-08  4.1016418385562518e-08  3.5172594649051698e-08  -2.5559223496735337e-07  -4.7871371895404314e-07  -2.4701660255785294e-07  4.1912856387257931e-08  4.3010713707659663e-08  -1.5150925949072797e-08  -2.5617509459434757e-09  3.3472611510087491e-09  -1.0849971295799779e-09  4.4064903777830927e-11  1.2955223676024317e-10  -7.8444942929161861e-11  2.4388092706612230e-11  -1.7186996505588031e-11  -2.3466810731868655e-09  1.3927703390921300e-09  2.7729400770345832e-09  -1.7959768968656141e-08  3.8257257808164454e-08  1.0773860284150627e-08  -2.5753478474473931e-07  2.5381343035790977e-07  1.5899941938617781e-06  1.5683999280814448e-06  2.2090228770177491e-07  -2.7216330034819399e-07  8.2917846841452835e-09  4.1171763270981027e-08  -1.7049863461174225e-08  1.6144442275503322e-09  1.6037742469566092e-09  -1.0961930481113945e-09  4.2252289202523443e-10  -1.1511862158181851e-10  5.7348314441527527e-11  -5.3033669306621633e-09  8.1591047914326331e-09  -1.5909447012769304e-08  1.3906971113181030e-08  5.1494820096312425e-08  -2.5709067202640152e-07  3.8555058000520686e-07  8.1890300607599157e-07  -3.4537891736422016e-06  -7.1740943715319431e-06  -3.3215994248808183e-06  9.0500262777178097e-07  4.1393493255052779e-07  -2.6054138847804367e-07  3.9969385322568363e-08  1.8759363156387802e-08  -1.5262438164655319e-08  6.1626112388117425e-09  -1.7853364407756671e-09  4.1036290794794487e-10  -1.4544946786758379e-10  -4.8569989028193530e-09  1.1353025332110417e-08  -3.8141432399253720e-08  1.0736691209424109e-07  -2.1120627272356432e-07  1.2511582765131159e-07  9.3137299506481694e-07  -3.5596852867890338e-06  1.7181497572658740e-06  2.3516337782091336e-05  2.3147894285005979e-05  1.2636628500737092e-06  -3.7348979561473014e-06  8.7044829769957619e-07  1.8937095191749869e-07  -2.1152171710474940e-07  8.9727395371698939e-08  -2.6308496913110403e-08  5.8761464132711314e-09  -1.0636961771872322e-09  2.2487700524234213e-10  -1.6535033372959151e-09  6.6966325976088713e-09  -3.4673027051026152e-08  1.5255479676766478e-07  -5.4541227032494718e-07  1.5147730130029728e-06  -2.7800081505370309e-06  4.9782337751336678e-07  1.7007544307848805e-05  -4.4643779482751517e-05  -1.1071766726136928e-04  -4.2470853842926557e-05  1.7888823240644459e-05  1.0631737336412570e-06  -2.8920462418364378e-06  1.3189550963507245e-06  -3.8877738162989716e-07  8.5093222371577159e-08  -1.3808113039626488e-08  1.5528981111810782e-09  1.0285352801485913e-10  4.5722722797265063e-10  4.6386670243233364e-10  -1.0813829393022320e-08  8.6392183821981457e-08  -4.9087375857258572e-07  2.1998988530167885e-06  -7.8770335452373913e-06  2.1488068642843147e-05  -3.6078269380381197e-05  -1.9980289910246266e-05  3.5604760486416013e-04  3.4824268807149243e-04  -2.5170831612729093e-05  -3.8178710320652808e-05  1.9697460147423838e-05  -5.8268792407207972e-06  1.2324316837713615e-06  -1.8595606822084132e-07  1.5175675876147619e-08  1.3990637318967562e-09  -1.8203709816243009e-09  3.8472687118021751e-10  -1.2011727962795866e-09  3.7313495688668013e-09  2.2732925087073739e-09  -1.3682958828147199e-07  1.1886831363165173e-06  -6.9896220995130324e-06  3.1831070959643008e-05  -1.1454302597975810e-04  3.1171597131490286e-04  -4.8571466938535372e-04  -1.8353305063998509e-03  -4.3927558287123520e-04  3.0461473211535519e-04  -8.9834672010885341e-05  1.7902210736894785e-05  -2.4188482240151175e-06  1.3165011010910445e-07  3.6866672425369791e-08  -1.4409836882413140e-08  4.9129551367364414e-09  -8.3489465082030760e-11  -1.3989989086783910e-10  2.3098848123506856e-09  -1.5420412750851086e-08  5.9299522217248176e-08  -2.4780126115777249e-08  -1.6900038298513769e-06  1.6287716015571373e-05  -9.9362120587969719e-05  4.5703127486207629e-04  -1.6853414937255903e-03  5.5994618027638277e-03  5.1450154075726399e-03  -1.4898410778689487e-03  2.6219641427195953e-04  -2.8828260079211028e-05  2.4141510486209121e-07  7.5034592570423461e-07  -1.9711117077193890e-07  2.9612156670873617e-08  -1.6182937276370174e-09  -6.1512789174845370e-11  2.2876352007066951e-10  -7.9928922974723048e-10  -3.0168860996301339e-11  2.4940202017938065e-08  -2.0598544191195645e-07  9.3350657532476563e-07  -1.2547135109458047e-06  -2.0256836214252977e-05  2.2549174684004760e-04  -1.3972867387162112e-03  8.1841441669261595e-03  8.2562480941743649e-02  6.6288652098054528e-03  -2.3604301880818615e-04  -3.1789100268889149e-05  1.3695783667694672e-05  -2.4498051522153262e-06  2.0375577522722749e-07  2.4863293971771231e-08  -2.5645358729109127e-08  2.6837182406889090e-11  -1.5894827609923367e-11  -2.7251974639073071e-10  2.6997443767412179e-09  -1.3548960275834769e-08  2.6040794095431816e-08  2.1693162861668832e-07  -2.6425939333971198e-06  1.4896994137622456e-05  -3.4562694017659733e-05  -2.6116882096299799e-04  7.1993427133086058e-03  8.2401448297125895e-02  7.2264967425770448e-03  -1.2230275269948983e-03  1.9863381424818101e-04  -1.7902837103093266e-05  -1.1934419104860858e-06  8.7229736838506370e-07  -2.0657659759287558e-07  4.6443336861776087e-08  3.5053606339881412e-12  -3.5614263322081085e-11  2.0941515663119979e-10  -6.8757950489309299e-10  -8.6027388195183304e-10  2.8504842146792559e-08  -2.0708785529787344e-07  7.9449189352267248e-07  2.6783767935697441e-07  -3.0907662897417908e-05  2.7960983312523839e-04  -1.5635257773438562e-03  5.0680112954161801e-03  5.1113673700059698e-03  -1.4735296327067591e-03  3.9965005396413360e-04  -8.7751384564143951e-05  1.4579063677723564e-05  -1.5317903341644370e-06  -2.5237361293196225e-08  1.1098700593426885e-07  -5.8185703377319617e-12  1.4588465268739346e-11  -2.4761235201907326e-11  -2.2014510277380320e-10  2.5693150110581264e-09  -1.4375461137390199e-08  3.8798656435128685e-08  1.3778088914111580e-07  -2.5398358861688151e-06  1.8798518849401457e-05  -9.3806635614970870e-05  3.1308621849941227e-04  -4.2894038206502008e-04  -1.7360062187371840e-03  -4.4239702491733840e-04  2.7722764573555195e-04  -1.0177543459561295e-04  2.8533736212080041e-05  -6.3561306486523782e-06  1.1604040628862273e-06  -2.4837898579840121e-07  1.7758291933540596e-12  2.2701796496060876e-13  -2.5070688368355456e-11  2.0539489799396678e-10  -9.5087674847389161e-10  1.6781086761113981e-09  1.5563764856118362e-08  -1.9318123302185021e-07  1.2801502192638272e-06  -6.0422990929612480e-06  2.0313724436449492e-05  -3.8846461187477551e-05  -2.5962699241105806e-05  3.3373545066472336e-04  3.3497917197707332e-04  -1.8600291607066959e-05  -3.2463562697786252e-05  1.9369505952497513e-05  -7.1646747250855485e-06  2.1385796462921050e-06  -8.9414733155038274e-07  5.2388756384652958e-13  -2.9072406844510672e-12  1.6069945637357399e-11  -6.1091235135859493e-11  4.9549413829307924e-11  1.4231431462436993e-09  -1.4298610495246181e-08  8.7993236645907153e-08  -4.0118420568059145e-07  1.3581099755667792e-06  -2.9654198445513638e-06  1.0850481391938223e-06  1.7867454496387442e-05  -4.0762351897225505e-05  -1.0565144277959054e-04  -4.2116073521027877e-05  1.5809822857408206e-05  3.9907367566172123e-07  -2.5276110070549974e-06  1.4711950900611231e-06  -9.9117080390400947e-07  -8.4643353488838210e-14  4.8994657748951192e-13  -1.6428204677296680e-12  -5.9366590491444551e-12  1.2654698766635149e-10  -1.0404100427307138e-09  6.0231430090363928e-09  -2.6887659594891958e-08  9.2017357434869925e-08  -2.1797434242629213e-07  1.9862363375033078e-07  8.7297950856036443e-07  -3.7299908441160614e-06  1.1391818794103600e-06  2.2308494593546688e-05  2.2514621010863808e-05  1.6576051289858566e-06  -3.3323500610050814e-06  8.6825317189656603e-07  1.2458903569864085e-07  -3.8253355310597467e-07  2.7470095086580261e-13  -6.3529735963310158e-13  1.8063428889543881e-12  3.3483470389821045e-13  -4.4596717908274852e-11  3.4318430043170367e-10  -1.7229573428200990e-09  6.3867925806871223e-09  -1.6792283782036632e-08  2.2730338132098677e-08  3.7543520672895375e-08  -2.7678751324735317e-07  4.5123710760148598e-07  9.4729360376929841e-07  -3.4178182784861623e-06  -7.3274714985481924e-06  -3.5331812023433216e-06  8.0144689208788975e-07  3.9974124978011256e-07  -2.6870283404043452e-07  9.4123149427619223e-08  -8.5464613262372277e-14  -1.0376737099505779e-13  1.4292672590878087e-12  -1.0814087041289517e-11  5.9174190010252919e-11  -2.5571461211567949e-10  8.7797105948963699e-10  -2.2526828084428689e-09  3.3107771424812458e-09  3.1984318919557743e-09  -3.4377445769853784e-08  8.2521566578198418e-08  1.7733064975703758e-08  -5.3783689621912951e-07  4.1208439346783802e-07  3.0071549459788801e-06  3.0388265146341209e-06  4.8504575308283132e-07  -4.8449017194423919e-07  1.9404674059252982e-08  1.0596339383082265e-07  </DataArray> 
</PointData> 
</Piece>
</UnstructuredGrid>
</VTKFile>