<?xml version="1.0"?>
<VTKFile type="UnstructuredGrid"  version="0.1"  >
<UnstructuredGrid>
<Piece  NumberOfPoints="961" NumberOfCells="1800">
<Points>
<DataArray  type="Float64"  NumberOfComponents="3"  format="ascii">0 0 0  0.03333333333333333 0 0  0.06666666666666667 0 0  0.1 0 0  0.1333333333333333 0 0  0.1666666666666667 0 0  0.2 0 0  0.2333333333333333 0 0  0.2666666666666667 0 0  0.3 0 0  0.3333333333333333 0 0  0.3666666666666666 0 0  0.4 0 0  0.4333333333333333 0 0  0.4666666666666667 0 0  0.5 0 0  0.5333333333333333 0 0  0.5666666666666667 0 0  0.6 0 0  0.6333333333333333 0 0  0.6666666666666666 0 0  0.7 0 0  0.7333333333333333 0 0  0.7666666666666667 0 0  0.8 0 0  0.8333333333333334 0 0  0.8666666666666667 0 0  0.9 0 0  0.9333333333333333 0 0  0.9666666666666667 0 0  1 0 0  0 0.03333333333333333 0  0.03333333333333333 0.03333333333333333 0  0.06666666666666667 0.03333333333333333 0  0.1 0.03333333333333333 0  0.1333333333333333 0.03333333333333333 0  0.1666666666666667 0.03333333333333333 0  0.2 0.03333333333333333 0  0.2333333333333333 0.03333333333333333 0  0.2666666666666667 0.03333333333333333 0  0.3 0.03333333333333333 0  0.3333333333333333 0.03333333333333333 0  0.3666666666666666 0.03333333333333333 0  0.4 0.03333333333333333 0  0.4333333333333333 0.03333333333333333 0  0.4666666666666667 0.03333333333333333 0  0.5 0.03333333333333333 0  0.5333333333333333 0.03333333333333333 0  0.5666666666666667 0.03333333333333333 0  0.6 0.03333333333333333 0  0.6333333333333333 0.03333333333333333 0  0.6666666666666666 0.03333333333333333 0  0.7 0.03333333333333333 0  0.7333333333333333 0.03333333333333333 0  0.7666666666666667 0.03333333333333333 0  0.8 0.03333333333333333 0  0.8333333333333334 0.03333333333333333 0  0.8666666666666667 0.03333333333333333 0  0.9 0.03333333333333333 0  0.9333333333333333 0.03333333333333333 0  0.9666666666666667 0.03333333333333333 0  1 0.03333333333333333 0  0 0.06666666666666667 0  0.03333333333333333 0.06666666666666667 0  0.06666666666666667 0.06666666666666667 0  0.1 0.06666666666666667 0  0.1333333333333333 0.06666666666666667 0  0.1666666666666667 0.06666666666666667 0  0.2 0.06666666666666667 0  0.2333333333333333 0.06666666666666667 0  0.2666666666666667 0.06666666666666667 0  0.3 0.06666666666666667 0  0.3333333333333333 0.06666666666666667 0  0.3666666666666666 0.06666666666666667 0  0.4 0.06666666666666667 0  0.4333333333333333 0.06666666666666667 0  0.4666666666666667 0.06666666666666667 0  0.5 0.06666666666666667 0  0.5333333333333333 0.06666666666666667 0  0.5666666666666667 0.06666666666666667 0  0.6 0.06666666666666667 0  0.6333333333333333 0.06666666666666667 0  0.6666666666666666 0.06666666666666667 0  0.7 0.06666666666666667 0  0.7333333333333333 0.06666666666666667 0  0.7666666666666667 0.06666666666666667 0  0.8 0.06666666666666667 0  0.8333333333333334 0.06666666666666667 0  0.8666666666666667 0.06666666666666667 0  0.9 0.06666666666666667 0  0.9333333333333333 0.06666666666666667 0  0.9666666666666667 0.06666666666666667 0  1 0.06666666666666667 0  0 0.1 0  0.03333333333333333 0.1 0  0.06666666666666667 0.1 0  0.1 0.1 0  0.1333333333333333 0.1 0  0.1666666666666667 0.1 0  0.2 0.1 0  0.2333333333333333 0.1 0  0.2666666666666667 0.1 0  0.3 0.1 0  0.3333333333333333 0.1 0  0.3666666666666666 0.1 0  0.4 0.1 0  0.4333333333333333 0.1 0  0.4666666666666667 0.1 0  0.5 0.1 0  0.5333333333333333 0.1 0  0.5666666666666667 0.1 0  0.6 0.1 0  0.6333333333333333 0.1 0  0.6666666666666666 0.1 0  0.7 0.1 0  0.7333333333333333 0.1 0  0.7666666666666667 0.1 0  0.8 0.1 0  0.8333333333333334 0.1 0  0.8666666666666667 0.1 0  0.9 0.1 0  0.9333333333333333 0.1 0  0.9666666666666667 0.1 0  1 0.1 0  0 0.1333333333333333 0  0.03333333333333333 0.1333333333333333 0  0.06666666666666667 0.1333333333333333 0  0.1 0.1333333333333333 0  0.1333333333333333 0.1333333333333333 0  0.1666666666666667 0.1333333333333333 0  0.2 0.1333333333333333 0  0.2333333333333333 0.1333333333333333 0  0.2666666666666667 0.1333333333333333 0  0.3 0.1333333333333333 0  0.3333333333333333 0.1333333333333333 0  0.3666666666666666 0.1333333333333333 0  0.4 0.1333333333333333 0  0.4333333333333333 0.1333333333333333 0  0.4666666666666667 0.1333333333333333 0  0.5 0.1333333333333333 0  0.5333333333333333 0.1333333333333333 0  0.5666666666666667 0.1333333333333333 0  0.6 0.1333333333333333 0  0.6333333333333333 0.1333333333333333 0  0.6666666666666666 0.1333333333333333 0  0.7 0.1333333333333333 0  0.7333333333333333 0.1333333333333333 0  0.7666666666666667 0.1333333333333333 0  0.8 0.1333333333333333 0  0.8333333333333334 0.1333333333333333 0  0.8666666666666667 0.1333333333333333 0  0.9 0.1333333333333333 0  0.9333333333333333 0.1333333333333333 0  0.9666666666666667 0.1333333333333333 0  1 0.1333333333333333 0  0 0.1666666666666667 0  0.03333333333333333 0.1666666666666667 0  0.06666666666666667 0.1666666666666667 0  0.1 0.1666666666666667 0  0.1333333333333333 0.1666666666666667 0  0.1666666666666667 0.1666666666666667 0  0.2 0.1666666666666667 0  0.2333333333333333 0.1666666666666667 0  0.2666666666666667 0.1666666666666667 0  0.3 0.1666666666666667 0  0.3333333333333333 0.1666666666666667 0  0.3666666666666666 0.1666666666666667 0  0.4 0.1666666666666667 0  0.4333333333333333 0.1666666666666667 0  0.4666666666666667 0.1666666666666667 0  0.5 0.1666666666666667 0  0.5333333333333333 0.1666666666666667 0  0.5666666666666667 0.1666666666666667 0  0.6 0.1666666666666667 0  0.6333333333333333 0.1666666666666667 0  0.6666666666666666 0.1666666666666667 0  0.7 0.1666666666666667 0  0.7333333333333333 0.1666666666666667 0  0.7666666666666667 0.1666666666666667 0  0.8 0.1666666666666667 0  0.8333333333333334 0.1666666666666667 0  0.8666666666666667 0.1666666666666667 0  0.9 0.1666666666666667 0  0.9333333333333333 0.1666666666666667 0  0.9666666666666667 0.1666666666666667 0  1 0.1666666666666667 0  0 0.2 0  0.03333333333333333 0.2 0  0.06666666666666667 0.2 0  0.1 0.2 0  0.1333333333333333 0.2 0  0.1666666666666667 0.2 0  0.2 0.2 0  0.2333333333333333 0.2 0  0.2666666666666667 0.2 0  0.3 0.2 0  0.3333333333333333 0.2 0  0.3666666666666666 0.2 0  0.4 0.2 0  0.4333333333333333 0.2 0  0.4666666666666667 0.2 0  0.5 0.2 0  0.5333333333333333 0.2 0  0.5666666666666667 0.2 0  0.6 0.2 0  0.6333333333333333 0.2 0  0.6666666666666666 0.2 0  0.7 0.2 0  0.7333333333333333 0.2 0  0.7666666666666667 0.2 0  0.8 0.2 0  0.8333333333333334 0.2 0  0.8666666666666667 0.2 0  0.9 0.2 0  0.9333333333333333 0.2 0  0.9666666666666667 0.2 0  1 0.2 0  0 0.2333333333333333 0  0.03333333333333333 0.2333333333333333 0  0.06666666666666667 0.2333333333333333 0  0.1 0.2333333333333333 0  0.1333333333333333 0.2333333333333333 0  0.1666666666666667 0.2333333333333333 0  0.2 0.2333333333333333 0  0.2333333333333333 0.2333333333333333 0  0.2666666666666667 0.2333333333333333 0  0.3 0.2333333333333333 0  0.3333333333333333 0.2333333333333333 0  0.3666666666666666 0.2333333333333333 0  0.4 0.2333333333333333 0  0.4333333333333333 0.2333333333333333 0  0.4666666666666667 0.2333333333333333 0  0.5 0.2333333333333333 0  0.5333333333333333 0.2333333333333333 0  0.5666666666666667 0.2333333333333333 0  0.6 0.2333333333333333 0  0.6333333333333333 0.2333333333333333 0  0.6666666666666666 0.2333333333333333 0  0.7 0.2333333333333333 0  0.7333333333333333 0.2333333333333333 0  0.7666666666666667 0.2333333333333333 0  0.8 0.2333333333333333 0  0.8333333333333334 0.2333333333333333 0  0.8666666666666667 0.2333333333333333 0  0.9 0.2333333333333333 0  0.9333333333333333 0.2333333333333333 0  0.9666666666666667 0.2333333333333333 0  1 0.2333333333333333 0  0 0.2666666666666667 0  0.03333333333333333 0.2666666666666667 0  0.06666666666666667 0.2666666666666667 0  0.1 0.2666666666666667 0  0.1333333333333333 0.2666666666666667 0  0.1666666666666667 0.2666666666666667 0  0.2 0.2666666666666667 0  0.2333333333333333 0.2666666666666667 0  0.2666666666666667 0.2666666666666667 0  0.3 0.2666666666666667 0  0.3333333333333333 0.2666666666666667 0  0.3666666666666666 0.2666666666666667 0  0.4 0.2666666666666667 0  0.4333333333333333 0.2666666666666667 0  0.4666666666666667 0.2666666666666667 0  0.5 0.2666666666666667 0  0.5333333333333333 0.2666666666666667 0  0.5666666666666667 0.2666666666666667 0  0.6 0.2666666666666667 0  0.6333333333333333 0.2666666666666667 0  0.6666666666666666 0.2666666666666667 0  0.7 0.2666666666666667 0  0.7333333333333333 0.2666666666666667 0  0.7666666666666667 0.2666666666666667 0  0.8 0.2666666666666667 0  0.8333333333333334 0.2666666666666667 0  0.8666666666666667 0.2666666666666667 0  0.9 0.2666666666666667 0  0.9333333333333333 0.2666666666666667 0  0.9666666666666667 0.2666666666666667 0  1 0.2666666666666667 0  0 0.3 0  0.03333333333333333 0.3 0  0.06666666666666667 0.3 0  0.1 0.3 0  0.1333333333333333 0.3 0  0.1666666666666667 0.3 0  0.2 0.3 0  0.2333333333333333 0.3 0  0.2666666666666667 0.3 0  0.3 0.3 0  0.3333333333333333 0.3 0  0.3666666666666666 0.3 0  0.4 0.3 0  0.4333333333333333 0.3 0  0.4666666666666667 0.3 0  0.5 0.3 0  0.5333333333333333 0.3 0  0.5666666666666667 0.3 0  0.6 0.3 0  0.6333333333333333 0.3 0  0.6666666666666666 0.3 0  0.7 0.3 0  0.7333333333333333 0.3 0  0.7666666666666667 0.3 0  0.8 0.3 0  0.8333333333333334 0.3 0  0.8666666666666667 0.3 0  0.9 0.3 0  0.9333333333333333 0.3 0  0.9666666666666667 0.3 0  1 0.3 0  0 0.3333333333333333 0  0.03333333333333333 0.3333333333333333 0  0.06666666666666667 0.3333333333333333 0  0.1 0.3333333333333333 0  0.1333333333333333 0.3333333333333333 0  0.1666666666666667 0.3333333333333333 0  0.2 0.3333333333333333 0  0.2333333333333333 0.3333333333333333 0  0.2666666666666667 0.3333333333333333 0  0.3 0.3333333333333333 0  0.3333333333333333 0.3333333333333333 0  0.3666666666666666 0.3333333333333333 0  0.4 0.3333333333333333 0  0.4333333333333333 0.3333333333333333 0  0.4666666666666667 0.3333333333333333 0  0.5 0.3333333333333333 0  0.5333333333333333 0.33333333333333
[...]
<PointData  Scalars="f_18-0"> 
<DataArray  type="Float64"  Name="f_18-0"  format="ascii">-4.0957525016764650e-15  4.3119867167820397e-14  2.0120760452842674e-14  -1.4142075525213124e-13  -2.2481194220429813e-13  -5.3796836336988244e-15  3.0940066855193029e-13  4.0921215272657926e-13  4.0966601324352196e-13  6.3571252833565446e-13  1.1266324867403829e-12  1.6149949018426803e-12  1.8134332970555272e-12  1.6207601481545030e-12  1.1606170757750942e-12  6.6599918203678116e-13  3.0600549463026315e-13  1.1256540255330901e-13  3.3158263763520520e-14  7.8215724876534253e-15  1.4772426099340266e-15  2.2341596195285291e-16  2.7058977948056963e-17  2.6231736073920934e-18  2.0386846985454640e-19  1.2641272248854105e-20  6.3485368239621282e-22  2.4465772216685955e-23  1.0024090109741675e-24  -5.4494129756334026e-26  1.2567018657652006e-25  4.3835719395145148e-14  -3.5212409691858943e-14  -1.0139926920414496e-13  9.6647740873607942e-14  4.7404594249987571e-13  5.1551882066312430e-13  5.2698062839056486e-13  2.1574610241453659e-12  7.2602375226022796e-12  1.6674262471017515e-11  2.9200341846566614e-11  4.0665835200886970e-11  4.5403414377166551e-11  4.0627807562916783e-11  2.9113535537312365e-11  1.6704042391356203e-11  7.6741090684395972e-12  2.8231438935480000e-12  8.3163343583679316e-13  1.9616361506639157e-13  3.7050834930358367e-14  5.6036642035876306e-15  6.7862480987999916e-16  6.5809881637511650e-17  5.1099976694049145e-18  3.1774201508134024e-19  1.5819875847317047e-20  6.3097039733739306e-22  1.9671384067984139e-23  7.5264806628725430e-25  -1.6497378346499508e-25  -9.3705822628665653e-14  -4.5950074457311030e-14  2.9179489639413772e-13  3.2792845576670682e-13  -2.3077252593987224e-13  2.2505676728736475e-12  1.6584747273576361e-11  5.8737479255123847e-11  1.5625378954966745e-10  3.3618358483756201e-10  5.8452869124698791e-10  8.1587632357504651e-10  9.1196821615987815e-10  8.1609651473078848e-10  5.8474236190444394e-10  3.3549132149541313e-10  1.5413245172951006e-10  5.6702001648379526e-11  1.6702968880746556e-11  3.9398703258366706e-12  7.4415433397096538e-13  1.1254735613691935e-13  1.3630133388323662e-14  1.3217663769437864e-15  1.0263667001839050e-16  6.3816249278478143e-18  3.1775125867101200e-19  1.2657305711408765e-20  4.0858598040026845e-22  8.8181301704220569e-24  8.1344349349931411e-25  -4.9021194223399913e-14  3.5337686762651163e-13  -2.2118837398052197e-14  3.5176053402288562e-13  1.2842914549681873e-11  6.9292654159084520e-11  2.7321194922126475e-10  9.0782252089285848e-10  2.4700821012758066e-09  5.3907509787025792e-09  9.4044515448964464e-09  1.3126091644937987e-08  1.4667495435915460e-08  1.3124370356417833e-08  9.4037957159502843e-09  5.3953638784104916e-09  2.4787280302028920e-09  9.1186278265076538e-10  2.6861124326113988e-10  6.3359683547560471e-11  1.1967280097743332e-11  1.8099700842731239e-12  2.1919963551682394e-13  2.1256901746546777e-14  1.6506304762293895e-15  1.0263399847345035e-16  5.1098846933470229e-18  2.0377430423599299e-19  6.4840901757823162e-21  1.7162754549374624e-22  2.5270160046192392e-24  6.4617545749092256e-13  -1.7182544227160389e-13  1.7091005669360717e-12  2.6770070551167490e-11  1.5831102158983267e-10  8.0299256062971447e-10  3.4346749514177694e-09  1.1743083889195272e-08  3.1955914720533418e-08  6.9519603921465060e-08  1.2111974217111784e-07  1.6901519402462989e-07  1.8887137393827592e-07  1.6900446696653679e-07  1.2109215612462316e-07  6.9474219523048223e-08  3.1917213051509919e-08  1.1741448789957746e-08  3.4587136837909797e-09  8.1583839535757222e-10  1.5409559027186600e-10  2.3306222006983241e-11  2.8225891322370536e-12  2.7372580317970250e-13  2.1255664167348303e-14  1.3216674455238181e-15  6.5805461026938086e-17  2.6232011532233147e-18  8.3824978535287111e-20  2.1290521604598729e-21  4.0733895670739379e-23  -2.5335398528711875e-13  1.6555964386291923e-12  3.3162842191435079e-11  2.3993909274122757e-10  1.5679224543903511e-09  8.4226828825671241e-09  3.5764424908977007e-08  1.2118568622237488e-07  3.2915564838847309e-07  7.1642725317674021e-07  1.2487605698044194e-06  1.7427764454791717e-06  1.9474625911604801e-06  1.7425273010280780e-06  1.2484801285828126e-06  7.1627196110690452e-07  3.2905624884099080e-07  1.2104875188676158e-07  3.5657473443177546e-08  8.4108908575659952e-09  1.5886719386366260e-09  2.4028441613640290e-10  2.9101382304581529e-11  2.8222492323227985e-12  2.1916323948830684e-13  1.3627873158218028e-14  6.7853331973962245e-16  2.7053537507155503e-17  8.6345114271786875e-19  2.2056692009067558e-20  4.8404720877967020e-22  -1.1156991705216818e-12  2.7048211557019338e-11  2.3992042131553232e-10  1.9644977547482774e-09  1.3164146410367055e-08  6.9568954993974024e-08  2.9442993793686318e-07  9.9968271489369950e-07  2.7182805121098859e-06  5.9167732505320629e-06  1.0311045060865695e-05  1.4388074962953471e-05  1.6076776620855393e-05  1.4384382210693315e-05  1.0305716872663354e-05  5.9123564931444623e-06  2.7160704895781806e-06  9.9913305250008204e-07  2.9431414440171347e-07  6.9423499800834085e-08  1.3113214462744068e-08  1.9834285811422656e-09  2.4022847399989877e-10  2.3298489698607148e-11  1.8093446709064063e-12  1.1251243765281233e-13  5.6022763530272954e-15  2.2335686983156273e-16  7.1302493299746618e-18  1.8258064979720692e-19  3.6026794961519786e-21  1.3704541362517205e-11  1.5855410116132521e-10  1.5677826274062977e-09  1.3164196531171651e-08  8.6828183555976310e-08  4.5916119930240241e-07  1.9478450914924493e-06  6.6132386723140800e-06  1.7972448237345810e-05  3.9109947326206230e-05  6.8150528247550875e-05  9.5090669348130076e-05  1.0624248934601643e-04  9.5052511745631911e-05  6.8098596103560879e-05  3.9067611717571478e-05  1.7947145078080842e-05  6.6020070387267644e-06  1.9447575709986853e-06  4.5874331394316107e-07  8.6654334158588083e-08  1.3107614317655161e-08  1.5876796439411292e-09  1.5399246647627601e-10  1.1959835919755229e-11  7.4376131702960681e-13  3.7035491399882955e-14  1.4766490712931527e-15  4.7147645336878031e-17  1.2037551455315601e-18  2.4833321971306462e-20  7.5261419236068977e-11  8.0200739453081652e-10  8.4227092739161683e-09  6.9569683897976429e-08  4.5916329126457176e-07  2.4328815040052028e-06  1.0313555199016197e-05  3.4999927052813931e-05  9.5116548307246559e-05  2.0696396789108795e-04  3.6053532634352500e-04  5.0287854631739346e-04  5.6171698331439451e-04  5.0252517644747456e-04  3.6005798787107292e-04  2.0659244039999888e-04  9.4917277693278080e-05  3.4918679795700729e-05  1.0286503770669832e-05  2.4265766189287118e-06  4.5840112666752870e-07  6.9345833009781689e-08  8.4005513847251318e-09  8.1488164134828687e-10  6.3294759038624846e-11  3.9365607735555641e-12  1.9603613640055911e-13  7.8167729630844734e-15  2.4953687113182699e-16  6.3810347562000605e-18  1.3177974209942072e-19  2.7791033695606022e-10  3.4328028785906683e-09  3.5765474149321865e-08  2.9443402348406891e-07  1.9478762822376416e-06  1.0313698346467718e-05  4.3708259459015879e-05  1.4834062887043880e-04  4.0299690122460468e-04  8.7620973566728845e-04  1.5249137967314988e-03  2.1250887219080895e-03  2.3725457855464172e-03  2.1226579306923682e-03  1.5216475196840838e-03  8.7365343485744146e-04  4.0160872166269523e-04  1.4779522374308143e-04  4.3546132198772355e-05  1.0273755370545276e-05  1.9410450202933770e-06  2.9368064865191567e-07  3.5582413029927371e-08  3.4521962208353919e-09  2.6818606249278721e-10  1.6681833078508096e-11  8.3082736879822406e-13  3.3130182552026395e-14  1.0578056535158333e-15  2.7055990770429297e-17  5.4580793504506081e-19  9.0379125103595172e-10  1.1742739747105374e-08  1.2118924528564098e-07  9.9970939810698146e-07  6.6134924428072391e-06  3.5001356018098390e-05  1.4834531121216864e-04  5.0322211845242387e-04  1.3655556373010651e-03  2.9640067270419977e-03  5.1470951609728323e-03  7.1577651282880078e-03  7.9822469160716510e-03  7.1439846919575606e-03  5.1290634076642683e-03  2.9504661759652273e-03  1.3584186821511497e-03  5.0039100230934617e-04  1.4750739420924991e-04  3.4810586610905488e-05  6.5782894650486065e-06  9.9552853347400905e-07  1.2064819191407255e-07  1.1708066254764455e-08  9.0974563772869604e-10  5.6598772526283770e-11  2.8192454694319964e-12  1.1243412331367480e-13  3.5903917967950846e-15  9.1694366700285534e-17  1.8913819510614088e-18  2.4612088362296101e-09  3.1958296707854451e-08  3.2916741134153603e-07  2.7184225293211961e-06  1.7973777989763404e-05  9.5124944804667329e-05  4.0303396711103407e-04  1.3656499134102401e-03  3.6982894598623492e-03  7.9993905733853343e-03  1.3827107770874468e-02  1.9148309459644016e-02  2.1311913827873348e-02  1.9092877870328748e-02  1.3753442817137666e-02  7.9438452405491550e-03  3.6696706711626453e-03  1.3545520178541608e-03  3.9971055659233261e-04  9.4377093283833425e-05  1.7841301874473668e-05  2.7009754100098857e-06  3.2744745276287303e-07  3.1787086810296698e-08  2.4706567271139465e-09  1.5374519354853259e-10  7.6596314900057290e-12  3.0552273782902226e-13  9.7545571429629357e-15  2.4947203191994995e-16  5.1758667710782825e-18  5.3858349150285529e-09  6.9523745264148081e-08  7.1646743547103372e-07  5.9173100314584478e-06  3.9114970673409569e-05  2.0699815077775718e-04  8.7637919754828778e-04  2.9645786768130269e-03  8.0004995288958138e-03  1.7202829692094395e-02  2.9523096123043834e-02  4.0646712208511286e-02  4.5131374418000282e-02  4.0502307565577121e-02  2.9322230705263862e-02  1.7042230637620216e-02  7.9142640826225900e-03  2.9309056834835472e-03  8.6628081028695253e-04  2.0470543959132001e-04  3.8719593558711289e-05  5.8647370095851251e-06  7.1135196145603046e-07  6.9085783703074319e-08  5.3717233477020273e-09  3.3437356892751095e-10  1.6662640795148101e-11  6.6468581661850407e-13  2.1226274702764194e-14  5.4383774534648594e-16  1.0734020887924222e-17  9.4052107902028462e-09  1.2112602286506487e-07  1.2488720834033779e-06  1.0312531076442284e-05  6.8164683967067682e-05  3.6063616219222705e-04  1.5254457034216448e-03  5.1491072640504733e-03  1.3832231484138162e-02  2.9530405734104457e-02  5.0289240255188696e-02  6.8847210562291622e-02  7.6287831820726432e-02  6.8588274304014221e-02  4.9908770375028062e-02  2.9201415292996687e-02  1.3641359357331394e-02  5.0709303594457010e-03  1.5016620017956376e-03  3.5520513905861004e-04  6.7236935204905668e-05  1.0191372014255468e-05  1.2369641109824657e-06  1.2020202473211553e-07  9.3505508759120072e-09  5.8225921602691447e-10  2.9022408940463839e-11  1.1578711258644840e-12  3.7009788137806009e-14  9.4266889714744346e-16  1.9229813455412818e-17  1.3128915235808408e-08  1.6902665530259676e-07  1.7430099925599082e-06  1.4391166037623405e-05  9.5120699374464832e-05  5.0309897388357350e-04  2.1262998967068484e-03  7.1626382101184502e-03  1.9162080885548660e-02  4.0672305490676582e-02  6.8874235913279278e-02  9.3945538132875206e-02  1.0397992854544322e-01  9.3596849585498104e-02  6.8330292229176567e-02  4.0163351703732197e-02  1.8842271053195660e-02  7.0235744815832475e-03  2.0829236300886006e-03  4.9316560772465201e-04  9.3434292184931645e-05  1.4174848223503111e-05  1.7218867755434140e-06  1.6743948947178324e-07  1.3032255426591796e-08  8.1185332613423251e-10  4.0474001026538493e-11  1.6156943151859272e-12  5.1597242296142208e-14  1.3089311404166749e-15  3.1921234609305102e-17  1.4670176601568958e-08  1.8888995858992147e-07  1.9478312936118891e-06  1.6081654638757764e-05  1.0629065949272803e-04  5.6207861319239100e-04  2.3745957725962892e-03  7.9908569922577596e-03  2.1337847757963845e-02  4.5185592345408560e-02  7.6364665577054180e-02  1.0404637908182301e-01  1.1512959522398147e-01  1.0366458945305525e-01  7.5733837070957349e-02  4.4556271630399713e-02  2.0918135060365751e-02  7.7997528463723846e-03  2.3137409571210243e-03  5.4814302351094846e-04  1.0394175016096713e-04  1.5784737683799716e-05  1.9192317164209081e-06  1.8676740168296737e-07  1.4545377183792155e-08  9.0640674386400831e-10  4.5204289972959308e-11  1.8057379315657689e-12  5.7350284464052706e-14  1.5150243739119643e-15  2.7685511055050389e-17  1.3126711676645713e-08  1.6902747073122142e-07  1.7429689378415155e-06  1.4390240478518510e-05  9.5111119905483577e-05  5.0297346555031237e-04  2.1252679803354445e-03  7.1553717387074613e-03  1.9129202062962824e-02  4.0585565690064732e-02  6.8726130339483119e-02  9.3762450027156719e-02  1.0379193972870400e-01  9.3396924216172197e-02  6.8104826009014297e-02  3.9948527420439833e-02  1.8693575899274201e-02  6.9530710459886026e-03  2.0603833680906680e-03  4.8816628833711775e-04  9.2633274407264265e-05  1.4080755825487225e-05  1.7134960685385788e-06  1.6686340741016085e-07  1.3002380642409431e-08  8.1032738160928562e-10  4.0463149569241164e-11  1.6112442495206241e-12  5.1473916966857886e-14  1.4333158869351601e-15  -2.4069498712308143e-17  9.4056943481523558e-09  1.2111357840879047e-07  1.2488830517486033e-06  1.0311077952455661e-05  6.8152795041158011e-05  3.6047919252587635e-04  1.5241585259698899e-03  5.1404204798350664e-03  1.3791790193661531e-02  2.9418031760045444e-02  5.0087651603655768e-02  6.8584242300742518e-02  7.6000863984840406e-02  6.8277963205723338e-02  4.9574539103995938e-02  2.8899196199381562e-02  1.3440004261279986e-02  4.9779987395071222e-03  1.4723894991433553e-03  3.4872613246937493e-04  6.6196934248967306e-05  1.0068854093856430e-05  1.2258964480725571e-06  1.1945378258484238e-07  9.3090141594418130e-09  5.8036592877842960e-10  2.9027603014723377e-11  1.1409270390056282e-12  3.9481644964851387e-14  6.6007755710571590e-16  1.7128939698650691e-17  5.3965958577166683e-09  6.9489341983093862e-08  7.1655251007062989e-07  5.9160985130769724e-06  3.9105756403916687e-05  2.0689274677382141e-04  8.7547943740481286e-04  2.9589891780071121e-03  7.9741169408296588e-03  1.7123713135170145e-02  2.9368742310340323e-02  4.0428023690488375e-02  4.4874525098073395e-02  4.0220012286516456e-02  2.9032874026027607e-02  1.6796540413782632e-02  7.7589700266819158e-03  2.8619504257341544e-03  8.4496468962492446e-04  1.9998954207403158e-04  3.7961064248941160e-05  5.7745879224899194e-06  7.0306073923079380e-07  6.8543719796822523e-08  5.3352818762366462e-09  3.3380643258461932e-10  1.6556056677763987e-11  6.5538837820008105e-13  2.5832588819193203e-14  -7.0662707599827650e-16  4.1574547349329862e-16  2.4793420913371170e-09  3.1925348755485476e-08  3.2920552774276700e-07  2.7180645679434958e-06  1.7967595680863786e-05  9.5079843514916880e-05  4.0261190721216833e-04  1.3632136299453637e-03  3.6873605183368411e-03  7.9645649304833539e-03  1.3751832499415513e-02  1.9029706387917896e-02  2.1160299818048602e-02  1.8922210583765909e-02  1.3585346862012248e-02  7.8099542566163220e-03  3.5899892438673413e-03  1.3206206666952294e-03  3.8937519246161622e-04  9.2085999888278305e-05  1.7472431996285750e-05  2.6561179834978881e-06  3.2331506454999411e-07  3.1519836814219547e-08  2.4468431044218457e-09  1.5500548546445407e-10  7.2457701857934842e-12  3.6373825214321247e-13  4.4697406103501815e-15  -1.9133166190240137e-16  6.4612472187411911e-16  9.1209970080232796e-10  1.1744793118396171e-08  1.2110952455776582e-07  9.9994513310114090e-07  6.6103673185468950e-06  3.4985550331850367e-05  1.4821176957236228e-04  5.0241184207460625e-04  1.3621836458948351e-03  2.9533343407318882e-03  5.1221780918362164e-03  7.1140891177083818e-03  7.9213008315624934e-03  7.0733704407729874e-03  5.0616988153037445e-03  2.8999348548701337e-03  1.3299811319198139e-03  4.8865738611663149e-04  1.4395422934764221e-04  3.4024045571672499e-05  6.4509823469758047e-06  9.7938838468939048e-07  1.1926312239241058e-07  1.1593288663476594e-08  9.0169180301350000e-10  5.7867007621166209e-11  2.2758782284632400e-12  2.4984981751716599e-13  -2.4667343160629371e-14  4.8487938503922222e-15  -8.7087914895579016e-16  2.6868239945310001e-10  3.4597657990065166e-09  3.5676425518977240e-08  2.9456715576325114e-07  1.9473663423029539e-06  1.0307429781450374e-05  4.3677050460390222e-05  1.4814689902336472e-04  4.0215126969245549e-04  8.7355910598930022e-04  1.5185787983355542e-03  2.1133209168212579e-03  2.3552629210122312e-03  2.1024018204718465e-03  1.5028679608426320e-03  8.6017954622056637e-04  3.9428606807115308e-04  1.4481900870514790e-04  4.2651743591990698e-05  1.0077425713947338e-05  1.9081688117985046e-06  2.8946332807650778e-07  3.5271975447428302e-08  3.3977267837441149e-09  2.7219016053287581e-10  1.6015874361034516e-11  6.8707113990249295e-13  1.3699149700236889e-13  -3.5890111809940485e-14  1.0357590413372905e-14  -4.0370898653149791e-15  6.3376252795913495e-11  8.1609211685466346e-10  8.4154235453884298e-09  6.9483872553006994e-08  4.5936540377138318e-07  2.4315655059146074e-06  1.0304967427220244e-05  3.4963116143016148e-05  9.4959828613547606e-05  2.0644571045093957e-04  3.5925577040866270e-04  5.0045348844365617e-04  5.5812401052325155e-04  4.9834637790675763e-04  3.5626399679677902e-04  2.0393395239673984e-04  9.3500397894586226e-05  3.4353682136215516e-05  1.0119771938110976e-05  2.3892006152640356e-06  4.5182298938122081e-07  6.8635685609353175e-08  8.3213459829455723e-09  7.9877953593847963e-10  6.8435035347959982e-11  2.1705435958794412e-12  5.7222925755259485e-13  -3.1611303905282559e-14  -9.3838971349632673e-15  7.5804352258025420e-15  -5.0759120643600410e-15  1.1970261143830905e-11  1.5414257138947599e-10  1.5895042468761585e-09  1.3124259730677744e-08  8.6767835764538327e-08  4.5930869628268706e-07  1.9467032941014816e-06  6.6058227737185667e-06  1.7945929011055684e-05  3.9029936202484909e-05  6.7953376901383453e-05  9.4712105542957563e-05  1.0567952961252563e-04  9.4402670627557062e-05  6.7518182206908090e-05  3.8670370648470548e-05  1.7741206222418890e-05  6.5212717558949749e-06  1.9202869054796840e-06  4.5300127519596897e-07  8.5789615372480259e-08  1.3017551622310473e-08  1.5549314029627911e-09  1.5830585028519915e-10  1.2166551390505643e-11  -4.4653544901938989e-14  4.1991173143764733e-13  -1.1753627640999551e-13  2.5487490901404227e-14  -2.8001823384331673e-15  -1.3151815627627328e-15  1.8103859903147943e-12  2.3312909608116484e-11  2.4040187180738377e-10  1.9849795386736903e-09  1.3123478958062309e-08  6.9472036198103417e-08  2.9446268866576632e-07  9.9930595926563866e-07  2.7151995860811325e-06  5.9064585794857877e-06  1.0286424171361675e-05  1.4341997098542349e-05  1.6009185416642044e-05  1.4307521004034303e-05  1.0238414301618265e-05  5.8670205762495791e-06  2.6924146866635999e-06  9.8953480644005951e-07  2.9144045774066328e-07  6.8889634435816053e-08  1.3035590088259099e-08  1.9485522866205647e-09  2.4005346120364935e-10  2.6083415565212709e-11  3.3446337425614435e-13  4.1414037954719949e-13  4.6154319721543412e-14  -5.8576098744126544e-14  2.6925364823491921e-14  -8.6788392920409517e-15  3.4209008224644700e-15  2.1924456627283776e-13  2.8233213238669694e-12  2.9114132173065847e-11  2.4039579028782269e-10  1.5893806367034318e-09  8.4139912651813481e-09  3.5665051991411363e-08  1.2104376206448183e-07  3.2892108238621882e-07  7.1561926644186774e-07  1.2465426187118021e-06  1.7384636639490294e-06  1.9411619717765788e-06  1.7354181620402357e-06  1.2422401811497604e-06  7.1203774433019900e-07  3.2691027702320453e-07  1.2030340283590118e-07  3.5488590016114712e-08  8.3545654501808521e-09  1.5588964464703996e-09  2.4031640355808483e-10  3.2523168107905298e-11  1.5467248032821146e-12  1.1299265081797044e-13  2.5669368145855987e-13  -9.9795319266362954e-14  1.7071015436393581e-14  4.2207285268163606e-15  -4.6561569554168673e-15  3.7494658260583844e-15  2.1260672315055812e-14  2.7378753185844847e-13  2.8233146458497350e-12  2.3312369907275101e-11  1.5413256297813751e-10  8.1597997042940370e-10  3.4588920526510916e-09  1.1739810500886333e-08  3.1904041789667848e-08  6.9420137251561549e-08  1.2094167526099535e-07  1.6869980566219125e-07  1.8841007777872180e-07  1.6848631040779705e-07  1.2065718701695044e-07  6.9208303655536791e-08  3.1792940318176088e-08  1.1677754712426567e-08  3.4175850647042736e-09  8.0193515750215120e-10  1.5838216803279692e-10  2.6011494374129525e-11  1.550