<?xml version="1.0"?>
<VTKFile type="UnstructuredGrid"  version="0.1"  >
<UnstructuredGrid>
<Piece  NumberOfPoints="961" NumberOfCells="1800">
<Points>
<DataArray  type="Float64"  NumberOfComponents="3"  format="ascii">0 0 0  0.03333333333333333 0 0  0.06666666666666667 0 0  0.1 0 0  0.1333333333333333 0 0  0.1666666666666667 0 0  0.2 0 0  0.2333333333333333 0 0  0.2666666666666667 0 0  0.3 0 0  0.3333333333333333 0 0  0.3666666666666666 0 0  0.4 0 0  0.4333333333333333 0 0  0.4666666666666667 0 0  0.5 0 0  0.5333333333333333 0 0  0.5666666666666667 0 0  0.6 0 0  0.6333333333333333 0 0  0.6666666666666666 0 0  0.7 0 0  0.7333333333333333 0 0  0.7666666666666667 0 0  0.8 0 0  0.8333333333333334 0 0  0.8666666666666667 0 0  0.9 0 0  0.9333333333333333 0 0  0.9666666666666667 0 0  1 0 0  0 0.03333333333333333 0  0.03333333333333333 0.03333333333333333 0  0.06666666666666667 0.03333333333333333 0  0.1 0.03333333333333333 0  0.1333333333333333 0.03333333333333333 0  0.1666666666666667 0.03333333333333333 0  0.2 0.03333333333333333 0  0.2333333333333333 0.03333333333333333 0  0.2666666666666667 0.03333333333333333 0  0.3 0.03333333333333333 0  0.3333333333333333 0.03333333333333333 0  0.3666666666666666 0.03333333333333333 0  0.4 0.03333333333333333 0  0.4333333333333333 0.03333333333333333 0  0.4666666666666667 0.03333333333333333 0  0.5 0.03333333333333333 0  0.5333333333333333 0.03333333333333333 0  0.5666666666666667 0.03333333333333333 0  0.6 0.03333333333333333 0  0.6333333333333333 0.03333333333333333 0  0.6666666666666666 0.03333333333333333 0  0.7 0.03333333333333333 0  0.7333333333333333 0.03333333333333333 0  0.7666666666666667 0.03333333333333333 0  0.8 0.03333333333333333 0  0.8333333333333334 0.03333333333333333 0  0.8666666666666667 0.03333333333333333 0  0.9 0.03333333333333333 0  0.9333333333333333 0.03333333333333333 0  0.9666666666666667 0.03333333333333333 0  1 0.03333333333333333 0  0 0.06666666666666667 0  0.03333333333333333 0.06666666666666667 0  0.06666666666666667 0.06666666666666667 0  0.1 0.06666666666666667 0  0.1333333333333333 0.06666666666666667 0  0.1666666666666667 0.06666666666666667 0  0.2 0.06666666666666667 0  0.2333333333333333 0.06666666666666667 0  0.2666666666666667 0.06666666666666667 0  0.3 0.06666666666666667 0  0.3333333333333333 0.06666666666666667 0  0.3666666666666666 0.06666666666666667 0  0.4 0.06666666666666667 0  0.4333333333333333 0.06666666666666667 0  0.4666666666666667 0.06666666666666667 0  0.5 0.06666666666666667 0  0.5333333333333333 0.06666666666666667 0  0.5666666666666667 0.06666666666666667 0  0.6 0.06666666666666667 0  0.6333333333333333 0.06666666666666667 0  0.6666666666666666 0.06666666666666667 0  0.7 0.06666666666666667 0  0.7333333333333333 0.06666666666666667 0  0.7666666666666667 0.06666666666666667 0  0.8 0.06666666666666667 0  0.8333333333333334 0.06666666666666667 0  0.8666666666666667 0.06666666666666667 0  0.9 0.06666666666666667 0  0.9333333333333333 0.06666666666666667 0  0.9666666666666667 0.06666666666666667 0  1 0.06666666666666667 0  0 0.1 0  0.03333333333333333 0.1 0  0.06666666666666667 0.1 0  0.1 0.1 0  0.1333333333333333 0.1 0  0.1666666666666667 0.1 0  0.2 0.1 0  0.2333333333333333 0.1 0  0.2666666666666667 0.1 0  0.3 0.1 0  0.3333333333333333 0.1 0  0.3666666666666666 0.1 0  0.4 0.1 0  0.4333333333333333 0.1 0  0.4666666666666667 0.1 0  0.5 0.1 0  0.5333333333333333 0.1 0  0.5666666666666667 0.1 0  0.6 0.1 0  0.6333333333333333 0.1 0  0.6666666666666666 0.1 0  0.7 0.1 0  0.7333333333333333 0.1 0  0.7666666666666667 0.1 0  0.8 0.1 0  0.8333333333333334 0.1 0  0.8666666666666667 0.1 0  0.9 0.1 0  0.9333333333333333 0.1 0  0.9666666666666667 0.1 0  1 0.1 0  0 0.1333333333333333 0  0.03333333333333333 0.1333333333333333 0  0.06666666666666667 0.1333333333333333 0  0.1 0.1333333333333333 0  0.1333333333333333 0.1333333333333333 0  0.1666666666666667 0.1333333333333333 0  0.2 0.1333333333333333 0  0.2333333333333333 0.1333333333333333 0  0.2666666666666667 0.1333333333333333 0  0.3 0.1333333333333333 0  0.3333333333333333 0.1333333333333333 0  0.3666666666666666 0.1333333333333333 0  0.4 0.1333333333333333 0  0.4333333333333333 0.1333333333333333 0  0.4666666666666667 0.1333333333333333 0  0.5 0.1333333333333333 0  0.5333333333333333 0.1333333333333333 0  0.5666666666666667 0.1333333333333333 0  0.6 0.1333333333333333 0  0.6333333333333333 0.1333333333333333 0  0.6666666666666666 0.1333333333333333 0  0.7 0.1333333333333333 0  0.7333333333333333 0.1333333333333333 0  0.7666666666666667 0.1333333333333333 0  0.8 0.1333333333333333 0  0.8333333333333334 0.1333333333333333 0  0.8666666666666667 0.1333333333333333 0  0.9 0.1333333333333333 0  0.9333333333333333 0.1333333333333333 0  0.9666666666666667 0.1333333333333333 0  1 0.1333333333333333 0  0 0.1666666666666667 0  0.03333333333333333 0.1666666666666667 0  0.06666666666666667 0.1666666666666667 0  0.1 0.1666666666666667 0  0.1333333333333333 0.1666666666666667 0  0.1666666666666667 0.1666666666666667 0  0.2 0.1666666666666667 0  0.2333333333333333 0.1666666666666667 0  0.2666666666666667 0.1666666666666667 0  0.3 0.1666666666666667 0  0.3333333333333333 0.1666666666666667 0  0.3666666666666666 0.1666666666666667 0  0.4 0.1666666666666667 0  0.4333333333333333 0.1666666666666667 0  0.4666666666666667 0.1666666666666667 0  0.5 0.1666666666666667 0  0.5333333333333333 0.1666666666666667 0  0.5666666666666667 0.1666666666666667 0  0.6 0.1666666666666667 0  0.6333333333333333 0.1666666666666667 0  0.6666666666666666 0.1666666666666667 0  0.7 0.1666666666666667 0  0.7333333333333333 0.1666666666666667 0  0.7666666666666667 0.1666666666666667 0  0.8 0.1666666666666667 0  0.8333333333333334 0.1666666666666667 0  0.8666666666666667 0.1666666666666667 0  0.9 0.1666666666666667 0  0.9333333333333333 0.1666666666666667 0  0.9666666666666667 0.1666666666666667 0  1 0.1666666666666667 0  0 0.2 0  0.03333333333333333 0.2 0  0.06666666666666667 0.2 0  0.1 0.2 0  0.1333333333333333 0.2 0  0.1666666666666667 0.2 0  0.2 0.2 0  0.2333333333333333 0.2 0  0.2666666666666667 0.2 0  0.3 0.2 0  0.3333333333333333 0.2 0  0.3666666666666666 0.2 0  0.4 0.2 0  0.4333333333333333 0.2 0  0.4666666666666667 0.2 0  0.5 0.2 0  0.5333333333333333 0.2 0  0.5666666666666667 0.2 0  0.6 0.2 0  0.6333333333333333 0.2 0  0.6666666666666666 0.2 0  0.7 0.2 0  0.7333333333333333 0.2 0  0.7666666666666667 0.2 0  0.8 0.2 0  0.8333333333333334 0.2 0  0.8666666666666667 0.2 0  0.9 0.2 0  0.9333333333333333 0.2 0  0.9666666666666667 0.2 0  1 0.2 0  0 0.2333333333333333 0  0.03333333333333333 0.2333333333333333 0  0.06666666666666667 0.2333333333333333 0  0.1 0.2333333333333333 0  0.1333333333333333 0.2333333333333333 0  0.1666666666666667 0.2333333333333333 0  0.2 0.2333333333333333 0  0.2333333333333333 0.2333333333333333 0  0.2666666666666667 0.2333333333333333 0  0.3 0.2333333333333333 0  0.3333333333333333 0.2333333333333333 0  0.3666666666666666 0.2333333333333333 0  0.4 0.2333333333333333 0  0.4333333333333333 0.2333333333333333 0  0.4666666666666667 0.2333333333333333 0  0.5 0.2333333333333333 0  0.5333333333333333 0.2333333333333333 0  0.5666666666666667 0.2333333333333333 0  0.6 0.2333333333333333 0  0.6333333333333333 0.2333333333333333 0  0.6666666666666666 0.2333333333333333 0  0.7 0.2333333333333333 0  0.7333333333333333 0.2333333333333333 0  0.7666666666666667 0.2333333333333333 0  0.8 0.2333333333333333 0  0.8333333333333334 0.2333333333333333 0  0.8666666666666667 0.2333333333333333 0  0.9 0.2333333333333333 0  0.9333333333333333 0.2333333333333333 0  0.9666666666666667 0.2333333333333333 0  1 0.2333333333333333 0  0 0.2666666666666667 0  0.03333333333333333 0.2666666666666667 0  0.06666666666666667 0.2666666666666667 0  0.1 0.2666666666666667 0  0.1333333333333333 0.2666666666666667 0  0.1666666666666667 0.2666666666666667 0  0.2 0.2666666666666667 0  0.2333333333333333 0.2666666666666667 0  0.2666666666666667 0.2666666666666667 0  0.3 0.2666666666666667 0  0.3333333333333333 0.2666666666666667 0  0.3666666666666666 0.2666666666666667 0  0.4 0.2666666666666667 0  0.4333333333333333 0.2666666666666667 0  0.4666666666666667 0.2666666666666667 0  0.5 0.2666666666666667 0  0.5333333333333333 0.2666666666666667 0  0.5666666666666667 0.2666666666666667 0  0.6 0.2666666666666667 0  0.6333333333333333 0.2666666666666667 0  0.6666666666666666 0.2666666666666667 0  0.7 0.2666666666666667 0  0.7333333333333333 0.2666666666666667 0  0.7666666666666667 0.2666666666666667 0  0.8 0.2666666666666667 0  0.8333333333333334 0.2666666666666667 0  0.8666666666666667 0.2666666666666667 0  0.9 0.2666666666666667 0  0.9333333333333333 0.2666666666666667 0  0.9666666666666667 0.2666666666666667 0  1 0.2666666666666667 0  0 0.3 0  0.03333333333333333 0.3 0  0.06666666666666667 0.3 0  0.1 0.3 0  0.1333333333333333 0.3 0  0.1666666666666667 0.3 0  0.2 0.3 0  0.2333333333333333 0.3 0  0.2666666666666667 0.3 0  0.3 0.3 0  0.3333333333333333 0.3 0  0.3666666666666666 0.3 0  0.4 0.3 0  0.4333333333333333 0.3 0  0.4666666666666667 0.3 0  0.5 0.3 0  0.5333333333333333 0.3 0  0.5666666666666667 0.3 0  0.6 0.3 0  0.6333333333333333 0.3 0  0.6666666666666666 0.3 0  0.7 0.3 0  0.7333333333333333 0.3 0  0.7666666666666667 0.3 0  0.8 0.3 0  0.8333333333333334 0.3 0  0.8666666666666667 0.3 0  0.9 0.3 0  0.9333333333333333 0.3 0  0.9666666666666667 0.3 0  1 0.3 0  0 0.3333333333333333 0  0.03333333333333333 0.3333333333333333 0  0.06666666666666667 0.3333333333333333 0  0.1 0.3333333333333333 0  0.1333333333333333 0.3333333333333333 0  0.1666666666666667 0.3333333333333333 0  0.2 0.3333333333333333 0  0.2333333333333333 0.3333333333333333 0  0.2666666666666667 0.3333333333333333 0  0.3 0.3333333333333333 0  0.3333333333333333 0.3333333333333333 0  0.3666666666666666 0.3333333333333333 0  0.4 0.3333333333333333 0  0.4333333333333333 0.3333333333333333 0  0.4666666666666667 0.3333333333333333 0  0.5 0.3333333333333333 0  0.5333333333333333 0.33333333333333
[...]
<PointData  Scalars="f_18-0"> 
<DataArray  type="Float64"  Name="f_18-0"  format="ascii">-6.1597633385989206e-15  4.6335549864219817e-14  2.6245732683284659e-14  -1.4826301384357867e-13  -2.4544052747071873e-13  -4.1637194300404455e-15  3.6311943960790914e-13  5.1496789395586041e-13  5.9112534189271776e-13  9.8320217425139926e-13  1.7346659323728381e-12  2.4751708199627018e-12  2.7796972242005743e-12  2.4865084930716439e-12  1.7814749866170385e-12  1.0226796651178575e-12  4.7013285412112859e-13  1.7304097592662154e-13  5.0999264561065717e-14  1.2035452974646583e-14  2.2740633892895849e-15  3.4404131028935776e-16  4.1678136610604556e-17  4.0421013757790388e-18  3.1409980048175238e-19  1.9474917052845665e-20  9.7878997405479409e-22  4.0041705579551828e-23  3.2687706134624402e-25  3.4277369982603920e-25  1.3296274904737244e-26  4.8691144331511867e-14  -3.4999721221295763e-14  -1.1298964669329044e-13  9.4785086246827188e-14  5.2733352025628756e-13  6.5682325321446019e-13  9.3526015537837952e-13  3.5621578732877028e-12  1.1263593819732169e-11  2.5526043105489159e-11  4.4648127572261959e-11  6.2197645920996691e-11  6.9452922399021197e-11  6.2157121815743904e-11  4.4555992643413178e-11  2.5577026324956485e-11  1.1757645284302499e-11  4.3282744788095620e-12  1.2758961419718051e-12  3.0116416691479322e-13  5.6920682702585891e-14  8.6140729851288969e-15  1.0437761664572465e-15  1.0126799743971347e-16  7.8663633835009045e-18  4.8935476204394024e-19  2.4380449163915717e-20  9.6283370578743212e-22  3.3126702610223803e-23  6.4152118709944321e-25  -3.2029137886834457e-25  -9.6844504134669377e-14  -5.7564858714412863e-14  3.1618130612285609e-13  4.3890055746697508e-13  1.2413320179228584e-13  4.1819851690563859e-12  2.5426638210119780e-11  8.9088724857133895e-11  2.3824664420254627e-10  5.1380697349728225e-10  8.9351578520326947e-10  1.2468658913193752e-09  1.3936566859158622e-09  1.2473951618076531e-09  8.9412881618724539e-10  5.1328524593112744e-10  2.3597515917768620e-10  8.6875959915983519e-11  2.5611691485529254e-11  6.0459708514557822e-12  1.1427977217622891e-12  1.7295683806837726e-13  2.0958780709519805e-14  2.0335296074641847e-15  1.5797818603149289e-16  9.8263348419267927e-18  4.8927175224643511e-19  1.9548083885749841e-20  6.2100549324170563e-22  1.3977958044611377e-23  2.0216808681995439e-24  -6.9764575681333043e-14  3.9496093123971159e-13  1.2062015149436764e-13  1.1598208672686654e-12  1.9095729339467528e-11  1.0338754975807137e-10  4.1613610039283063e-10  1.3896317478558817e-09  3.7768991591427932e-09  8.2317326687874626e-09  1.4350195305939387e-08  2.0022524700008244e-08  2.2372789910391541e-08  2.0023343306566188e-08  1.4353742271283670e-08  8.2410408766706718e-09  3.7893136032465391e-09  1.3953200982062356e-09  4.1143038654445984e-10  9.7141652251125207e-11  1.8364695312106345e-11  2.7798381580765787e-12  3.3690389643553146e-13  3.2691942784074092e-14  2.5399298915502516e-15  1.5799709356255209e-16  7.8699684577765448e-18  3.1375520546974046e-19  9.9923200289852798e-21  2.7204489019646863e-22  -4.2404932028465694e-25  7.1014140023348146e-13  -1.4969487353083604e-14  3.0275790583978625e-12  3.9300231004035045e-11  2.4087171635003905e-10  1.2343227981302788e-09  5.2574899042881301e-09  1.7920108040173303e-08  4.8701138027763190e-08  1.0586118407569631e-07  1.8430797399910804e-07  2.5706857078375044e-07  2.8722962613522593e-07  2.5708047199815340e-07  1.8431305862444308e-07  1.0584430482508042e-07  4.8682033676847471e-08  1.7931630577421162e-08  5.2891098105278971e-09  1.2491818495895459e-09  2.3622508203196692e-10  3.5765858751574130e-11  4.3355639220850256e-12  4.2077890988799887e-13  3.2696035311406480e-14  2.0341130529045358e-15  1.0131685901298072e-16  4.0401995968441991e-18  1.2926315336165620e-19  3.2354440944638994e-21  7.2234586116557351e-23  -8.1266809862596722e-14  2.9663873019055643e-12  4.8846578201725757e-11  3.6789745770791494e-10  2.4054021492363206e-09  1.2850162272254823e-08  5.4476305626759011e-08  1.8441496295852940e-07  5.0021947044116229e-07  1.0871732084671431e-06  1.8926692041840113e-06  2.6393243585532052e-06  2.9485552145657511e-06  2.6391234753359163e-06  1.8925122071093721e-06  1.0871929119144535e-06  5.0027058619156701e-07  1.8436189890906979e-07  5.4406278980986741e-08  1.2855651050294304e-08  2.4320642031059189e-09  3.6836030088019658e-10  4.4666132959343365e-11  4.3360083719014163e-12  3.3698574096328196e-13  2.0967504287104288e-14  1.0444908310002060e-15  4.1662261414342537e-17  1.3292700093771217e-18  3.4079424713072558e-20  7.6936910447019699e-22  -4.2610180173570604e-13  3.9508176925261410e-11  3.6764291027038163e-10  3.0087153471036917e-09  2.0059542167412001e-08  1.0591539601568021e-07  4.4758263813597534e-07  1.5162122573522288e-06  4.1129485683508529e-06  8.9328431862921772e-06  1.5538922730261634e-05  2.1656838957031254e-05  2.4188364695023725e-05  2.1651634353249081e-05  1.5531910291890820e-05  8.9276969174995222e-06  4.1109251922968908e-06  1.5161014128683909e-06  4.4773616972906109e-07  1.0586653946590150e-07  2.0039927916261340e-08  3.0367615849440388e-09  3.6837706934842001e-10  3.5771925960590430e-11  2.7807832260936370e-12  1.7305310219280986e-13  8.6217691787744121e-15  3.4387020146155033e-16  1.0982327918899037e-17  2.8148390744914356e-19  5.3028080037951479e-21  1.9753614667555629e-11  2.4059865084878100e-10  2.4024392661022647e-09  2.0047758010166401e-08  1.3212715442429541e-07  6.9731252268506159e-07  2.9492935779199529e-06  9.9812141465858331e-06  2.7035433099396581e-05  5.8642096470914704e-05  1.0190433060479820e-04  1.4192078541322032e-04  1.5845608345200661e-04  1.4185587581916985e-04  1.0181805226149578e-04  5.8576047437338613e-05  2.7000640549800849e-05  9.9686077774154319e-06  2.9470023006972904e-06  6.9747321335918709e-07  1.3213644184998144e-07  2.0037187972427936e-08  2.4319772135166511e-09  2.3626235540332361e-10  1.8371997375357278e-11  1.1435782712026496e-12  5.6982341310968163e-14  2.2730679542912839e-15  7.2605489049941097e-17  1.8510758912708969e-18  3.9154443557906088e-20  1.0910954278852576e-10  1.2301174551778087e-09  1.2826071789722200e-08  1.0579710481741192e-07  6.9696668023076492e-07  3.6804301832152784e-06  1.5541953733001702e-05  5.2507901698603483e-05  1.4200059763874278e-04  3.0749569771923522e-04  5.3346091805832427e-04  7.4198203732639325e-04  8.2792011953709832e-04  7.4132816137907978e-04  5.3257416125964611e-04  3.0680855973123596e-04  1.4164377373283084e-04  5.2376229866525304e-05  1.5506446050445054e-05  3.6747535567774861e-06  6.9698023742380462e-07  1.0579235612769624e-07  1.2850373990217608e-08  1.2491374314027689e-09  9.7176126954551015e-11  6.0505634615450753e-12  3.0154924530959995e-13  1.2030653601174318e-14  3.8413679043420709e-16  9.8337415746046412e-18  2.0381921049740151e-19  4.1934559553728010e-10  5.2374276637469475e-09  5.4340985041702769e-08  4.4686976530527319e-07  2.9465512201434886e-06  1.5535603537272435e-05  6.5491915658299278e-05  2.2086514491190438e-04  5.9586926054269534e-04  1.2866730333414259e-03  2.2259614113309977e-03  3.0892777717037691e-03  3.4434442729807733e-03  3.0842721915838884e-03  2.2190526198837784e-03  1.2811184483861771e-03  5.9282560369560203e-04  2.1969424100597330e-04  6.5172025690834516e-05  1.5472289744283223e-05  2.9392837076982277e-06  4.4676467740102694e-07  5.4329754078979660e-08  5.2858464217256018e-09  4.1146801261409541e-10  2.5630370358208047e-11  1.2777126485288113e-12  5.0980302057793872e-14  1.6284874819928579e-15  4.1670997682484155e-17  8.2956748522984583e-19  1.3789438010295385e-09  1.7841998431485821e-08  1.8385591855272748e-07  1.5131199579498539e-06  9.9681877598199583e-06  5.2468939974408354e-05  2.2079459925272685e-04  7.4258570671009781e-04  1.9960583074652045e-03  4.2914562543834153e-03  7.3905888924739914e-03  1.0218024487145943e-02  1.1367514460985684e-02  1.0186844749954009e-02  7.3474845128534520e-03  4.2565883107518404e-03  1.9765327514758351e-03  7.3471037409971721e-04  2.1852575358597402e-04  5.2003686906215573e-05  9.9012557139543217e-06  1.5080297001990993e-06  1.8370416663144118e-07  1.7896970001043960e-08  1.3944941214994451e-09  8.6917667305188442e-11  4.3345366833086717e-12  1.7299137238504332e-13  5.5270159051829396e-15  1.4101511377975959e-16  2.9577191333819289e-18  3.7472127993615551e-09  4.8455203224982315e-08  4.9844874996574978e-07  4.1029097626033218e-06  2.6991625830176005e-05  1.4185673523392514e-04  5.9553114536561424e-04  1.9955866612001820e-03  5.3372485034573376e-03  1.1400281646263289e-02  1.9489482836321976e-02  2.6777217877782200e-02  2.9696463810454467e-02  2.6635373859895457e-02  1.9288868757247866e-02  1.1233767798070594e-02  5.2420056239783942e-03  1.9562308993257760e-03  5.8374111156536484e-04  1.3933951740407097e-04  2.6610447195952619e-05  4.0648674851313167e-06  4.9645252530412451e-07  4.8464943576711331e-08  3.7818244289184425e-09  2.3593974193574904e-10  1.1772825635146479e-11  4.7002400264799057e-13  1.5010916394489857e-14  3.8426639438605025e-16  8.0603108424177151e-18  8.1762269077371557e-09  1.0525812201451390e-07  1.0828340346744185e-06  8.9080486548280863e-06  5.8532059349806639e-05  3.0711869302114275e-04  1.2857101941841993e-03  4.2897830060968428e-03  1.1398808682497137e-02  2.4128349188153930e-02  4.0829475851423852e-02  5.5623244600647465e-02  6.1438413630619915e-02  5.5177225006078662e-02  4.0172638446499723e-02  2.3554700679291093e-02  1.1055957458479223e-02  4.1438416804231975e-03  1.2408780714894460e-03  2.9725975323266674e-04  5.6994055551679396e-05  8.7415223983530622e-06  1.0715828814541148e-06  1.0492381738232840e-07  8.2050378442833244e-09  5.1260357163264468e-10  2.5599393950585313e-11  1.0223349151617090e-12  3.2665420755302622e-14  8.3865100613843026e-16  1.6002048883294707e-17  1.4254808972887367e-08  1.8316331975373698e-07  1.8844385305158584e-06  1.5491843491533179e-05  1.0169351764198752e-04  5.3272716455700668e-04  2.2240647170626376e-03  7.3874067079477985e-03  1.9487954715024462e-02  4.0835148426291837e-02  6.8340114844625696e-02  9.2283741432181834e-02  1.0151282586847400e-01  9.1273523134101670e-02  6.6785798142390232e-02  3.9399375323564620e-02  1.8584634801187296e-02  6.9890051124914332e-03  2.0990180704880223e-03  5.0470889325672454e-04  9.7230475983769058e-05  1.4991147925780521e-05  1.8467806425098026e-06  1.8155931341694682e-07  1.4239462071545799e-08  8.9130663986287416e-10  4.4559934673794198e-11  1.7803849654723737e-12  5.6982850876659349e-14  1.4474679213609746e-15  2.9730009166148708e-17  1.9883897240944549e-08  2.5538508921748967e-07  2.6272335001620590e-06  2.1587717285066214e-05  1.4161032477659903e-04  7.4090775352945103e-04  3.0866587017557268e-03  1.0215142171103038e-02  2.6785388740574942e-02  5.5667853386934078e-02  9.2364366932624231e-02  1.2389295671626699e-01  1.3583344393589750e-01  1.2214225271534884e-01  8.9570992511287306e-02  5.2969847925405780e-02  2.5017900795495311e-02  9.4129872384336611e-03  2.8307310632950259e-03  6.8289978338493943e-04  1.3224356768708583e-04  2.0515074733731484e-05  2.5423534871267948e-06  2.5117403584018084e-07  1.9770239736351782e-08  1.2404161097474351e-09  6.2089671540781293e-11  2.4839688234505729e-12  7.9408782342133043e-14  2.0050598790286163e-15  5.3981686854140098e-17  2.2215124680314060e-08  2.8530966039264206e-07  2.9347852553799669e-06  2.4109695607517017e-05  1.5810408019352102e-04  8.2674276563086643e-04  3.4410938156931763e-03  1.1369496180051203e-02  2.9733542994525686e-02  6.1584174272272120e-02  1.0182363593656588e-01  1.3618881628566323e-01  1.4900735409308025e-01  1.3375716806772095e-01  9.7868715249043073e-02  5.7681526634241961e-02  2.7129654118577439e-02  1.0172714366607497e-02  3.0565439331582734e-03  7.3910060275910697e-04  1.4383515161486566e-04  2.2454192705075085e-05  2.8000974101461587e-06  2.7808597954652741e-07  2.1973564245173589e-08  1.3819716066762492e-09  6.9285555553137989e-11  2.7754331227635252e-12  8.8122692838294403e-14  2.3529899345904404e-15  4.1134840946423218e-17  1.9885743436067157e-08  2.5538172567618403e-07  2.6269522534577759e-06  2.1582179278513307e-05  1.4154924636944677e-04  7.4038257319949290e-04  3.0833496896813810e-03  1.0197696232628579e-02  2.6715533926280895e-02  5.5471905903928649e-02  9.1949712404719469e-02  1.2315189399232825e-01  1.3463349308091130e-01  1.2040316350862630e-01  8.7495420899821305e-02  5.1102550791897995e-02  2.3818339870501637e-02  8.8728684620867169e-03  2.6590068667176952e-03  6.4365799473358593e-04  1.2573694026367697e-04  1.9732798816599436e-05  2.4739141267557858e-06  2.4682532070544934e-07  1.9569388185585765e-08  1.2332154767825438e-09  6.1974688713097748e-11  2.4739018780380596e-12  7.9360665691508038e-14  2.2169643073728664e-15  -5.4028597666613444e-17  1.4261516055609862e-08  1.8314613981988125e-07  1.8841542358354146e-06  1.5484340430968178e-05  1.0161362388835267e-04  5.3204144349251119e-04  2.2197757703262787e-03  7.3654687464081341e-03  1.9399609424831550e-02  4.0578500929943181e-02  6.7772968020479218e-02  9.1229066736467038e-02  9.9768703691034355e-02  8.8762856134118454e-02  6.3863259509573972e-02  3.6844727655051188e-02  1.6983207146204608e-02  6.2801918581060732e-03  1.8758228589485820e-03  4.5394252181839561e-04  8.8840486742141882e-05  1.3984243419617944e-05  1.7586905399809045e-06  1.7599279103672154e-07  1.3977325752853694e-08  8.8256867681119919e-10  4.4397740968858173e-11  1.7543213610209618e-12  6.1205629521026254e-14  8.5598619841487081e-16  6.9141073817026508e-17  8.1933801438078076e-09  1.0522119066914457e-07  1.0827288839923432e-06  8.9024116544653665e-06  5.8472056510817827e-05  3.0661800192035893e-04  1.2825760752307775e-03  4.2745094986002255e-03  1.1337910969568559e-02  2.3943334915212642e-02  4.0393551308681379e-02  5.4765340463357785e-02  5.9978824569463511e-02  5.3090910269244743e-02  3.7815334474265376e-02  2.1565953311790530e-02  9.8468619391243947e-03  3.6199148747318574e-03  1.0778198828617041e-03  2.6040733455425473e-04  5.0936711440114606e-05  8.0162106092211004e-06  1.0082760768931399e-06  1.0095228711964776e-07  8.0095985178846206e-09  5.0803190799654496e-10  2.5202765897543359e-11  1.0320258334546684e-12  3.6500820097032510e-14  -8.6316174974128231e-16  6.9983448369383503e-16  3.7702558751195227e-09  4.8422940089455292e-08  4.9841323015178554e-07  4.1004761151497552e-06  2.6960236780353279e-05  1.4161522249503739e-04  5.9400559216323391e-04  1.9884579179685305e-03  5.3099902230934488e-03  1.1315041657071765e-02  1.9274136549511146e-02  2.6324668509872497e-02  2.8900131631773286e-02  2.5500145364406979e-02  1.8038641196419902e-02  1.0212494511135654e-02  4.6382091141753626e-03  1.6994164509817344e-03  5.0461946237643986e-04  1.2158736820260183e-04  2.3712000251245371e-05  3.7182320499003896e-06  4.6650725418641052e-07  4.6565974077455141e-08  3.6865361971667633e-09  2.3559145671632887e-10  1.1021446259121793e-11  5.9833220027492355e-13  -3.4701687591446807e-15  1.8009876918761642e-15  4.5562961331235263e-16  1.3894037125329107e-09  1.7847556147402556e-08  1.8375848064113850e-07  1.5127310153314682e-06  9.9565048803444978e-06  5.2385203363230695e-05  2.2028404738483098e-04  7.4020144971814294e-04  1.9873563253210141e-03  4.2644678486355144e-03  7.3189661914662496e-03  1.0058233373765624e-02  1.1076583965669986e-02  9.7710601267969460e-03  6.8975306340961452e-03  3.8975577020375404e-03  1.7683830670064682e-03  6.4723452117970877e-04  1.9177436122372671e-04  4.6048595664082157e-05  8.9332875461767673e-06  1.3924433256737062e-06  1.7396575524546035e-07  1.7219235130192732e-08  1.3723405321641830e-09  8.6065276766510023e-11  3.8398965336986586e-12  3.5339333391391676e-13  -4.1916356600324511e-14  1.0250180744789561e-14  -2.8100122731903630e-15  4.0999850167377052e-10  5.2677598175816627e-09  5.4252678263448541e-08  4.4688189960808812e-07  2.9441433121845768e-06  1.5512921989438097e-05  6.5370368820259129e-05  2.2030451339416612e-04  5.9381743606697513e-04  1.2803916335960954e-03  2.2090493030777715e-03  3.0502931374070548e-03  3.3708500516779478e-03  2.9801570652862649e-03  2.1074205262632088e-03  1.1931645967992060e-03  5.4232491184222440e-04  1.9859944224633055e-04  5.8761078111155634e-05  1.4053352964492636e-05  2.7082175263391685e-06  4.1964082833555560e-07  5.2056547901407174e-08  5.0947056061029865e-09  4.1903316930666916e-10  2.2054498615029548e-11  1.7544523253488812e-12  5.5624945799177919e-14  -2.9201401647519938e-14  1.3149246767484002e-14  -6.5827070694469775e-15  9.6869978587547511e-11  1.2449234226904918e-09  1.2824860814485072e-08  1.0569473007351185e-07  6.9692005881028884e-07  3.6765664409263499e-06  1.5518431310708092e-05  5.2412243438582178e-05  1.4165979607279274e-04  3.0643749597032780e-04  5.3057703296024712e-04  7.3525660839022350e-04  8.1528622469230776e-04  7.2315976660789361e-04  5.1313563439141208e-04  2.9155074938959466e-04  1.3291550764039638e-04  4.8746302423710265e-05  1.4407765659704120e-05  3.4309379502996780e-06  6.5746641761598935e-07  1.0136941743527909e-07  1.2396079197191567e-08  1.2256654050416414e-09  1.0164951174142234e-10  2.9889479831951047e-12  1.2820582409990896e-12  -2.1448392302983413e-13  3.3925629795049858e-14  2.8169881429753766e-17  -4.0426738654838660e-15  1.8323988789447828e-11  2.3555443617931619e-10  2.4271673243138963e-09  2.0012158825233040e-08  1.3204486046445033e-07  6.9726078045912501e-07  2.9467429464594733e-06  9.9678862889467432e-06  2.6991505154543077e-05  5.8513647107155187e-05  1.0155570309715763e-04  1.4109904976525986e-04  1.5689865366262982e-04  1.3960460027206124e-04  9.9405270847529288e-05  5.6684185858912592e-05  2.5920950509168325e-05  9.5197048598535556e-06  2.8103583007186068e-06  6.6721549762530856e-07  1.2745904414333275e-07  1.9455551324507466e-08  2.3559726255045530e-09  2.4761072708262578e-10  1.4829228473783159e-11  1.0594176474083030e-12  4.8180633504255076e-13  -2.0800136091856358e-13  6.7261478444017890e-14  -1.6437925559075709e-14  4.6084882035764267e-15  2.7749738907317834e-12  3.5681782694945207e-11  3.6773550388954746e-10  3.0330978495753209e-09  2.0023861516384878e-08  1.0581217851987487e-07  4.4758735313093073e-07  1.5156961581079306e-06  4.1094377342999308e-06  8.9212567577908062e-06  1.5508009072796911e-05  2.1584695068989576e-05  2.4051116225454615e-05  2.1452205248705605e-05  1.5317412536937122e-05  8.7588361508444384e-06  4.0138263198294001e-06  1.4753966379638816e-06  4.3549696465039335e-07  1.0328956618251079e-07  1.9596326009705039e-08  2.9578645333704294e-09  3.7504900869604768e-10  3.6455097895683746e-11  4.5808726004722698e-13  1.1705171121491382e-12  -1.9329782708403294e-13  -1.6461426240954928e-14  3.1564727195462454e-14  -1.5644267509155610e-14  9.1434988453875230e-15  3.3643272867903594e-13  4.3270643209506605e-12  4.4601134685136546e-11  3.6797519847629410e-10  2.4302794904925997e-09  1.2849130216547584e-08  5.4387082189894717e-08  1.8431221204391587e-07  5.0013232801376137e-07  1.0867288957410490e-06  1.8909568705981203e-06  2.6348760043077789e-06  2.9398574124966507e-06  2.6263009534309142e-06  1.8785264225846601e-06  1.0760765445432547e-06  4.9393506172926209e-07  1.8181921243371221e-07  5.3661546031450375e-08  1.2653697500691366e-08  2.3858495954024800e-09  3.7393169630692166e-10  4.6369158271612608e-11  1.7475200107348731e-12  9.3340321980909197e-13  1.9828980151915548e-13  -1.7992001609559967e-13  6.7638495607179450e-14  -1.1876524173957568e-14  -2.0176910094887018e-15  4.5866670104041127e-15  3.2653915651887339e-14  4.2007286599671675e-13  4.3303735635994239e-12  3.5734559962148536e-11  2.3607687723633998e-10  1.2486274796185479e-09  5.2874580474100835e-09  1.7927544054145245e-08  4.8672502691770036e-08  1.0581909807021775e-07  1.8423911342114880e-07  2.5688633470805227e-07  2.8683410775927330e-07  2.5647458935021148e-07  1.8365891662547338e-07  1.0534290575971206e-07  4.8394461219020460e-08  1.7787773690728926e-08  5.2248420967374977e-09  1.2371803337429142e-09  2.4263229034951156e-10  3.6210485503779074e-11  2.199100