<?xml version="1.0"?>
<VTKFile type="UnstructuredGrid"  version="0.1"  >
<UnstructuredGrid>
<Piece  NumberOfPoints="961" NumberOfCells="1800">
<Points>
<DataArray  type="Float64"  NumberOfComponents="3"  format="ascii">0 0 0  0.03333333333333333 0 0  0.06666666666666667 0 0  0.1 0 0  0.1333333333333333 0 0  0.1666666666666667 0 0  0.2 0 0  0.2333333333333333 0 0  0.2666666666666667 0 0  0.3 0 0  0.3333333333333333 0 0  0.3666666666666666 0 0  0.4 0 0  0.4333333333333333 0 0  0.4666666666666667 0 0  0.5 0 0  0.5333333333333333 0 0  0.5666666666666667 0 0  0.6 0 0  0.6333333333333333 0 0  0.6666666666666666 0 0  0.7 0 0  0.7333333333333333 0 0  0.7666666666666667 0 0  0.8 0 0  0.8333333333333334 0 0  0.8666666666666667 0 0  0.9 0 0  0.9333333333333333 0 0  0.9666666666666667 0 0  1 0 0  0 0.03333333333333333 0  0.03333333333333333 0.03333333333333333 0  0.06666666666666667 0.03333333333333333 0  0.1 0.03333333333333333 0  0.1333333333333333 0.03333333333333333 0  0.1666666666666667 0.03333333333333333 0  0.2 0.03333333333333333 0  0.2333333333333333 0.03333333333333333 0  0.2666666666666667 0.03333333333333333 0  0.3 0.03333333333333333 0  0.3333333333333333 0.03333333333333333 0  0.3666666666666666 0.03333333333333333 0  0.4 0.03333333333333333 0  0.4333333333333333 0.03333333333333333 0  0.4666666666666667 0.03333333333333333 0  0.5 0.03333333333333333 0  0.5333333333333333 0.03333333333333333 0  0.5666666666666667 0.03333333333333333 0  0.6 0.03333333333333333 0  0.6333333333333333 0.03333333333333333 0  0.6666666666666666 0.03333333333333333 0  0.7 0.03333333333333333 0  0.7333333333333333 0.03333333333333333 0  0.7666666666666667 0.03333333333333333 0  0.8 0.03333333333333333 0  0.8333333333333334 0.03333333333333333 0  0.8666666666666667 0.03333333333333333 0  0.9 0.03333333333333333 0  0.9333333333333333 0.03333333333333333 0  0.9666666666666667 0.03333333333333333 0  1 0.03333333333333333 0  0 0.06666666666666667 0  0.03333333333333333 0.06666666666666667 0  0.06666666666666667 0.06666666666666667 0  0.1 0.06666666666666667 0  0.1333333333333333 0.06666666666666667 0  0.1666666666666667 0.06666666666666667 0  0.2 0.06666666666666667 0  0.2333333333333333 0.06666666666666667 0  0.2666666666666667 0.06666666666666667 0  0.3 0.06666666666666667 0  0.3333333333333333 0.06666666666666667 0  0.3666666666666666 0.06666666666666667 0  0.4 0.06666666666666667 0  0.4333333333333333 0.06666666666666667 0  0.4666666666666667 0.06666666666666667 0  0.5 0.06666666666666667 0  0.5333333333333333 0.06666666666666667 0  0.5666666666666667 0.06666666666666667 0  0.6 0.06666666666666667 0  0.6333333333333333 0.06666666666666667 0  0.6666666666666666 0.06666666666666667 0  0.7 0.06666666666666667 0  0.7333333333333333 0.06666666666666667 0  0.7666666666666667 0.06666666666666667 0  0.8 0.06666666666666667 0  0.8333333333333334 0.06666666666666667 0  0.8666666666666667 0.06666666666666667 0  0.9 0.06666666666666667 0  0.9333333333333333 0.06666666666666667 0  0.9666666666666667 0.06666666666666667 0  1 0.06666666666666667 0  0 0.1 0  0.03333333333333333 0.1 0  0.06666666666666667 0.1 0  0.1 0.1 0  0.1333333333333333 0.1 0  0.1666666666666667 0.1 0  0.2 0.1 0  0.2333333333333333 0.1 0  0.2666666666666667 0.1 0  0.3 0.1 0  0.3333333333333333 0.1 0  0.3666666666666666 0.1 0  0.4 0.1 0  0.4333333333333333 0.1 0  0.4666666666666667 0.1 0  0.5 0.1 0  0.5333333333333333 0.1 0  0.5666666666666667 0.1 0  0.6 0.1 0  0.6333333333333333 0.1 0  0.6666666666666666 0.1 0  0.7 0.1 0  0.7333333333333333 0.1 0  0.7666666666666667 0.1 0  0.8 0.1 0  0.8333333333333334 0.1 0  0.8666666666666667 0.1 0  0.9 0.1 0  0.9333333333333333 0.1 0  0.9666666666666667 0.1 0  1 0.1 0  0 0.1333333333333333 0  0.03333333333333333 0.1333333333333333 0  0.06666666666666667 0.1333333333333333 0  0.1 0.1333333333333333 0  0.1333333333333333 0.1333333333333333 0  0.1666666666666667 0.1333333333333333 0  0.2 0.1333333333333333 0  0.2333333333333333 0.1333333333333333 0  0.2666666666666667 0.1333333333333333 0  0.3 0.1333333333333333 0  0.3333333333333333 0.1333333333333333 0  0.3666666666666666 0.1333333333333333 0  0.4 0.1333333333333333 0  0.4333333333333333 0.1333333333333333 0  0.4666666666666667 0.1333333333333333 0  0.5 0.1333333333333333 0  0.5333333333333333 0.1333333333333333 0  0.5666666666666667 0.1333333333333333 0  0.6 0.1333333333333333 0  0.6333333333333333 0.1333333333333333 0  0.6666666666666666 0.1333333333333333 0  0.7 0.1333333333333333 0  0.7333333333333333 0.1333333333333333 0  0.7666666666666667 0.1333333333333333 0  0.8 0.1333333333333333 0  0.8333333333333334 0.1333333333333333 0  0.8666666666666667 0.1333333333333333 0  0.9 0.1333333333333333 0  0.9333333333333333 0.1333333333333333 0  0.9666666666666667 0.1333333333333333 0  1 0.1333333333333333 0  0 0.1666666666666667 0  0.03333333333333333 0.1666666666666667 0  0.06666666666666667 0.1666666666666667 0  0.1 0.1666666666666667 0  0.1333333333333333 0.1666666666666667 0  0.1666666666666667 0.1666666666666667 0  0.2 0.1666666666666667 0  0.2333333333333333 0.1666666666666667 0  0.2666666666666667 0.1666666666666667 0  0.3 0.1666666666666667 0  0.3333333333333333 0.1666666666666667 0  0.3666666666666666 0.1666666666666667 0  0.4 0.1666666666666667 0  0.4333333333333333 0.1666666666666667 0  0.4666666666666667 0.1666666666666667 0  0.5 0.1666666666666667 0  0.5333333333333333 0.1666666666666667 0  0.5666666666666667 0.1666666666666667 0  0.6 0.1666666666666667 0  0.6333333333333333 0.1666666666666667 0  0.6666666666666666 0.1666666666666667 0  0.7 0.1666666666666667 0  0.7333333333333333 0.1666666666666667 0  0.7666666666666667 0.1666666666666667 0  0.8 0.1666666666666667 0  0.8333333333333334 0.1666666666666667 0  0.8666666666666667 0.1666666666666667 0  0.9 0.1666666666666667 0  0.9333333333333333 0.1666666666666667 0  0.9666666666666667 0.1666666666666667 0  1 0.1666666666666667 0  0 0.2 0  0.03333333333333333 0.2 0  0.06666666666666667 0.2 0  0.1 0.2 0  0.1333333333333333 0.2 0  0.1666666666666667 0.2 0  0.2 0.2 0  0.2333333333333333 0.2 0  0.2666666666666667 0.2 0  0.3 0.2 0  0.3333333333333333 0.2 0  0.3666666666666666 0.2 0  0.4 0.2 0  0.4333333333333333 0.2 0  0.4666666666666667 0.2 0  0.5 0.2 0  0.5333333333333333 0.2 0  0.5666666666666667 0.2 0  0.6 0.2 0  0.6333333333333333 0.2 0  0.6666666666666666 0.2 0  0.7 0.2 0  0.7333333333333333 0.2 0  0.7666666666666667 0.2 0  0.8 0.2 0  0.8333333333333334 0.2 0  0.8666666666666667 0.2 0  0.9 0.2 0  0.9333333333333333 0.2 0  0.9666666666666667 0.2 0  1 0.2 0  0 0.2333333333333333 0  0.03333333333333333 0.2333333333333333 0  0.06666666666666667 0.2333333333333333 0  0.1 0.2333333333333333 0  0.1333333333333333 0.2333333333333333 0  0.1666666666666667 0.2333333333333333 0  0.2 0.2333333333333333 0  0.2333333333333333 0.2333333333333333 0  0.2666666666666667 0.2333333333333333 0  0.3 0.2333333333333333 0  0.3333333333333333 0.2333333333333333 0  0.3666666666666666 0.2333333333333333 0  0.4 0.2333333333333333 0  0.4333333333333333 0.2333333333333333 0  0.4666666666666667 0.2333333333333333 0  0.5 0.2333333333333333 0  0.5333333333333333 0.2333333333333333 0  0.5666666666666667 0.2333333333333333 0  0.6 0.2333333333333333 0  0.6333333333333333 0.2333333333333333 0  0.6666666666666666 0.2333333333333333 0  0.7 0.2333333333333333 0  0.7333333333333333 0.2333333333333333 0  0.7666666666666667 0.2333333333333333 0  0.8 0.2333333333333333 0  0.8333333333333334 0.2333333333333333 0  0.8666666666666667 0.2333333333333333 0  0.9 0.2333333333333333 0  0.9333333333333333 0.2333333333333333 0  0.9666666666666667 0.2333333333333333 0  1 0.2333333333333333 0  0 0.2666666666666667 0  0.03333333333333333 0.2666666666666667 0  0.06666666666666667 0.2666666666666667 0  0.1 0.2666666666666667 0  0.1333333333333333 0.2666666666666667 0  0.1666666666666667 0.2666666666666667 0  0.2 0.2666666666666667 0  0.2333333333333333 0.2666666666666667 0  0.2666666666666667 0.2666666666666667 0  0.3 0.2666666666666667 0  0.3333333333333333 0.2666666666666667 0  0.3666666666666666 0.2666666666666667 0  0.4 0.2666666666666667 0  0.4333333333333333 0.2666666666666667 0  0.4666666666666667 0.2666666666666667 0  0.5 0.2666666666666667 0  0.5333333333333333 0.2666666666666667 0  0.5666666666666667 0.2666666666666667 0  0.6 0.2666666666666667 0  0.6333333333333333 0.2666666666666667 0  0.6666666666666666 0.2666666666666667 0  0.7 0.2666666666666667 0  0.7333333333333333 0.2666666666666667 0  0.7666666666666667 0.2666666666666667 0  0.8 0.2666666666666667 0  0.8333333333333334 0.2666666666666667 0  0.8666666666666667 0.2666666666666667 0  0.9 0.2666666666666667 0  0.9333333333333333 0.2666666666666667 0  0.9666666666666667 0.2666666666666667 0  1 0.2666666666666667 0  0 0.3 0  0.03333333333333333 0.3 0  0.06666666666666667 0.3 0  0.1 0.3 0  0.1333333333333333 0.3 0  0.1666666666666667 0.3 0  0.2 0.3 0  0.2333333333333333 0.3 0  0.2666666666666667 0.3 0  0.3 0.3 0  0.3333333333333333 0.3 0  0.3666666666666666 0.3 0  0.4 0.3 0  0.4333333333333333 0.3 0  0.4666666666666667 0.3 0  0.5 0.3 0  0.5333333333333333 0.3 0  0.5666666666666667 0.3 0  0.6 0.3 0  0.6333333333333333 0.3 0  0.6666666666666666 0.3 0  0.7 0.3 0  0.7333333333333333 0.3 0  0.7666666666666667 0.3 0  0.8 0.3 0  0.8333333333333334 0.3 0  0.8666666666666667 0.3 0  0.9 0.3 0  0.9333333333333333 0.3 0  0.9666666666666667 0.3 0  1 0.3 0  0 0.3333333333333333 0  0.03333333333333333 0.3333333333333333 0  0.06666666666666667 0.3333333333333333 0  0.1 0.3333333333333333 0  0.1333333333333333 0.3333333333333333 0  0.1666666666666667 0.3333333333333333 0  0.2 0.3333333333333333 0  0.2333333333333333 0.3333333333333333 0  0.2666666666666667 0.3333333333333333 0  0.3 0.3333333333333333 0  0.3333333333333333 0.3333333333333333 0  0.3666666666666666 0.3333333333333333 0  0.4 0.3333333333333333 0  0.4333333333333333 0.3333333333333333 0  0.4666666666666667 0.3333333333333333 0  0.5 0.3333333333333333 0  0.5333333333333333 0.33333333333333
[...]
<PointData  Scalars="f_18-0"> 
<DataArray  type="Float64"  Name="f_18-0"  format="ascii">3.8857585563294778e-13  -1.0102525914250741e-12  -1.2671805786000562e-12  2.7620339611600332e-12  6.9367424619540386e-12  3.1703873477858454e-12  -5.9036542519051599e-12  -9.6094570467470715e-12  -5.2397093007203755e-12  8.2165099782786633e-13  4.1890610278099662e-12  5.4649241268357041e-12  5.7745100916006488e-12  5.1246541159440629e-12  3.6784226630356761e-12  2.1099617935350502e-12  9.6815297263956739e-13  3.5593876178662537e-13  1.0483822576992069e-13  2.4726052737565919e-14  4.6712638171086798e-15  7.0682360485032465e-16  8.5576782775905509e-17  8.3377955910690044e-18  6.3507959182521337e-19  4.3671089246730158e-20  9.6011496268757003e-22  3.6585158987149414e-22  -6.9923740040446687e-23  1.6630820563143909e-23  -1.0708206604789305e-23  -1.2883164080936958e-12  3.7205831408715832e-13  3.0999091004393256e-12  -1.5239845032856673e-13  -1.0823315641452406e-11  -1.2173606100770946e-11  5.5785916496090373e-12  2.7593637438362961e-11  4.2072591218901174e-11  6.0200317835323952e-11  9.2849230060260679e-11  1.2840783273154857e-10  1.4404735018396948e-10  1.2892346919971481e-10  9.2241602890274799e-11  5.2855944791299324e-11  2.4264141221450837e-11  8.9221180315511933e-12  2.6276407297972064e-12  6.1982912991017026e-13  1.1710420705159780e-13  1.7718623372633356e-14  2.1473505984243544e-15  2.0828908113184734e-16  1.6213428598771274e-17  1.0011614508476255e-18  5.1806400382148345e-20  1.6212156486827752e-21  1.4317510667854205e-22  -1.1362676698767660e-23  4.8985094053510424e-24  1.6221793446763883e-12  2.4918760523437050e-12  -5.8602944433326084e-12  -1.0239320776597218e-11  2.0369819532056388e-11  6.3628582550932932e-11  7.7494622336722714e-11  1.3772989475899069e-10  4.2178896402027967e-10  1.0287061906619484e-09  1.8549095510269125e-09  2.5978957495230251e-09  2.8957986459792672e-09  2.5853416526140646e-09  1.8496989840490002e-09  1.0601563080481130e-09  4.8669539179354462e-10  1.7896164529554950e-10  5.2708594085804376e-11  1.2433948096098467e-11  2.3492257774551230e-12  3.5548200746007669e-13  4.3076932338064487e-14  4.1808191329519019e-15  3.2476192029846698e-16  2.0242251842953258e-17  9.9987553320471916e-19  4.1888313008697875e-20  9.1193659387245658e-22  1.0824721852066411e-22  -2.4953834716118204e-23  3.9840421487161738e-12  -8.6267144933271698e-12  -3.2307585141388623e-13  4.6919115991956752e-11  4.6049301584055974e-11  5.9200116704524076e-11  6.8299068198445413e-10  2.9593741886065677e-09  8.1703654286338416e-09  1.7421452795798336e-08  2.9975457719877995e-08  4.1618179563350135e-08  4.6400869556208646e-08  4.1453662066904631e-08  2.9662674536827212e-08  1.7001444432837165e-08  7.8056184765657066e-09  2.8705615806888004e-09  8.4556220017880729e-10  1.9949225211996653e-10  3.7695859793181632e-11  5.7046446977071180e-12  6.9138299381391711e-13  6.7099385783987742e-14  5.2152330680048236e-15  3.2441394772850279e-16  1.6191664007441617e-17  6.4014210872164617e-19  2.1480185821879294e-20  3.8012339039134192e-22  3.4797066390772660e-23  -1.6072848933580372e-11  4.8998478705021367e-12  5.0173388086487824e-11  1.1189426635342821e-11  3.2306881223345349e-10  2.8423977754701626e-09  1.1823848370480631e-08  3.7869042844567135e-08  1.0102666453985980e-07  2.1961655721294637e-07  3.8279000387107843e-07  5.3339750196041930e-07  5.9476945466049231e-07  5.3118255239316952e-07  3.8008005916448644e-07  2.1789178444586757e-07  1.0006806878838332e-07  3.6812320580447944e-08  1.0846778360867574e-08  2.5597436869503573e-09  4.8379769781764134e-10  7.3229997210292247e-11  8.8767103272836755e-12  8.6166649500217434e-13  6.6973983703181006e-14  4.1686530507620166e-15  2.0763901440455609e-16  8.2987829213502349e-18  2.6274545435356072e-19  7.0114475261304450e-21  1.6212415669266502e-22  -1.4845176907839186e-12  5.2581450451044583e-11  5.8619879727329227e-12  6.8353210955777695e-10  5.6624743411722883e-09  2.7201664333835904e-08  1.1185384398928028e-07  3.8265030721130254e-07  1.0440038368294795e-06  2.2653213554613786e-06  3.9285815045036905e-06  5.4587252278375505e-06  6.0805846249572522e-06  5.4299939516980910e-06  3.8868192217443581e-06  2.2296508596607858e-06  1.0247470700806960e-06  3.7725551798882443e-07  1.1123121165792147e-07  2.6263676516538349e-08  4.9660394505915638e-09  7.5194447111744103e-10  9.1175285642776619e-11  8.8525492267590814e-12  6.8824877002177587e-13  4.2841149676306104e-14  2.1353206969172736e-15  8.5164233421832694e-17  2.7236203432375184e-18  6.9611497585255019e-20  1.0609944747631217e-21  8.8347260297209773e-11  4.7904035630971334e-12  6.8309515947685013e-10  6.9793740308546798e-09  4.1458052509098363e-08  2.1891310943890910e-07  9.3889744120441568e-07  3.1740712196157884e-06  8.5538716725636285e-06  1.8478331980478286e-05  3.2001851711310577e-05  4.4424328529411439e-05  4.9453360071569290e-05  4.4166569069594673e-05  3.1645039150394643e-05  1.8181385264965137e-05  8.3709879781141260e-06  3.0868512432556141e-06  9.1138662758622425e-07  2.1542155274204882e-07  4.0764591219994349e-08  6.1760695342016676e-09  7.4920035553955263e-10  7.2769258460345678e-11  5.6591326840690611e-12  3.5236354071983926e-13  1.7564070509513097e-14  7.0094202930402987e-16  2.2391935497356659e-17  5.7014209237694230e-19  1.3304398228232345e-20  5.2698046319868829e-11  3.1056107367847867e-10  5.6589324832185076e-09  4.1422569889746792e-08  2.7432889058850959e-07  1.4661446885076153e-06  6.1562653794276649e-06  2.0689688248835935e-05  5.5742800037878864e-05  1.2010995021910219e-04  2.0708491116218621e-04  2.8630905041349521e-04  3.1806319600420841e-04  2.8417650805481564e-04  2.0412103541980059e-04  1.1771274275094521e-04  5.4412299994910871e-05  2.0135730014835362e-05  5.9615190383248950e-06  1.4119293639013719e-06  2.6755196697906862e-07  4.0574207684524779e-08  4.9252562860164779e-09  4.7862664827140138e-10  3.7236863767002322e-11  2.3192506069263332e-12  1.1563917959329174e-13  4.6154765166568639e-15  1.4742396371834204e-16  3.7833036778893085e-18  7.2686284795983874e-20  -8.9713908891404208e-11  2.8543879962724300e-09  2.7134391705358596e-08  2.1861338391481995e-07  1.4654325149950888e-06  7.6732711870280178e-06  3.2192594343077500e-05  1.0806667299246844e-04  2.8894506026083596e-04  6.1629256617412803e-04  1.0523729327136947e-03  1.4445271993869396e-03  1.5996463143998652e-03  1.4315436793441052e-03  1.0342184613623961e-03  6.0126392626819137e-04  2.8026153165701601e-04  1.0445484579665807e-04  3.1090910481135386e-05  7.3904274836926547e-06  1.4037361020107345e-06  2.1319533681177067e-07  2.5904952461604849e-08  2.5191202546324054e-09  1.9608567338578088e-10  1.2217790580243794e-11  6.0936863613725859e-13  2.4326821785854468e-14  7.7750021800344558e-16  1.9836130772180943e-17  4.1184003273546336e-19  4.9643714417470204e-10  1.1834436524197232e-08  1.1149763115000017e-07  9.3743049112702009e-07  6.1517290785439160e-06  3.2186208336893262e-05  1.3469959601151741e-04  4.4715543939231265e-04  1.1785111420013897e-03  2.4731343390193275e-03  4.1523686170790624e-03  5.6224433510333903e-03  6.1882930766974670e-03  5.5570115617743889e-03  4.0618258002667667e-03  2.3998569963844490e-03  1.1369891132063862e-03  4.2949698572859019e-04  1.2907338008363717e-04  3.0871973131616965e-05  5.8859109937657612e-06  8.9594231499822456e-07  1.0901437772129140e-07  1.0610654370910580e-08  8.2644851529360319e-10  5.1519081367698035e-11  2.5704727787723621e-12  1.0264773269627888e-13  3.2796754977056443e-15  8.3966890241343629e-17  1.7535397188490394e-18  2.9846022851718583e-09  3.7711214299191269e-08  3.8144243247550247e-07  3.1689008166760520e-06  2.0675194008193704e-05  1.0805995184958799e-04  4.4722898628435403e-04  1.4612624680214383e-03  3.7693998195884298e-03  7.6887857283704213e-03  1.2530000167204186e-02  1.6585891608314751e-02  1.8090955639381578e-02  1.6354950851349040e-02  1.2198266348325547e-02  7.4099738006398914e-03  3.6103020783075424e-03  1.3952002379077210e-03  4.2593889617443094e-04  1.0286768952201036e-04  1.9721709172227954e-05  3.0114554236074421e-06  3.6709308028125760e-07  3.5770922971495404e-08  2.7882896463006696e-09  1.7391343331602573e-10  8.6807774880919829e-12  3.4672594510295861e-13  1.1084802594787125e-14  2.8393535929011875e-16  5.5354568163639084e-18  8.3767850947297846e-09  1.0044448888127255e-07  1.0408679188088319e-06  8.5412502811285722e-06  5.5723409401322083e-05  2.8905776044702599e-04  1.1793064679774771e-03  3.7714245411678226e-03  9.4058043111605247e-03  1.8391671628459262e-02  2.8808738842561642e-02  3.7126005183193214e-02  4.0125545046945717e-02  3.6611779114401978e-02  2.8023400272575865e-02  1.7669847463797000e-02  8.9563903165291586e-03  3.5772547787531668e-03  1.1170913523660935e-03  2.7344963344004146e-04  5.2816891143093031e-05  8.0976413917447716e-06  9.8933285717893642e-07  9.6535477813976541e-08  7.5315400586698147e-09  4.7006009694270547e-10  2.3472565462903863e-11  9.3793577638386319e-13  2.9998259075396532e-14  7.6370956255560958e-16  1.6284519414493855e-17  1.7526375808550415e-08  2.1837454737062971e-07  2.2590761968709652e-06  1.8459106929271204e-05  1.2014478211981960e-04  6.1699629884880744e-04  2.4768709710438429e-03  7.6994680209190028e-03  1.8406748796329829e-02  3.4363300894614944e-02  5.1858403544683560e-02  6.5411170126330812e-02  7.0274347841871254e-02  6.4629987874226635e-02  5.0592745567743326e-02  3.3084193705663761e-02  1.7512345748968070e-02  7.2724984063847978e-03  2.3342015721003755e-03  5.8070135142138178e-04  1.1314424343223845e-04  1.7427233983623812e-05  2.1346002830252561e-06  2.0860120097048523e-07  1.6290795106207242e-08  1.0174044882991034e-09  5.0830394536702920e-11  2.0321759095046477e-12  6.4900371052883590e-14  1.6662395845913278e-15  3.6748203721321229e-17  2.9819577993267183e-08  3.8080010685259735e-07  3.9194811557785485e-06  3.1991057220247196e-05  2.0733000719727509e-04  1.0546604862266629e-03  4.1632650504606229e-03  1.2560958158946769e-02  2.8860412687151549e-02  5.1904358368146816e-02  7.6446350826230552e-02  9.5457172097960952e-02  1.0242066465993090e-01  9.4568401083277479e-02  7.4923718224590832e-02  5.0224318633669295e-02  2.7546778243417388e-02  1.1857790122282745e-02  3.9087663949000772e-03  9.8797192291697573e-04  1.9414999460882400e-04  3.0040708809529405e-05  3.6888413106709076e-06  3.6104321502056556e-07  2.8223355695512820e-08  1.7637873452212082e-09  8.8181561117812403e-11  3.5240495862849430e-12  1.1267759340240853e-13  2.9408152931323718e-15  4.1070317459162365e-17  4.1275992645179480e-08  5.3091710609380676e-07  5.4497816580386730e-06  4.4450863341952273e-05  2.8696950977175127e-04  1.4495146206461127e-03  5.6447823406520267e-03  1.6648107822936166e-02  3.7233832507297199e-02  6.5530415092813987e-02  9.5537225990571739e-02  1.1917988944182033e-01  1.2808656070331181e-01  1.1837236862493949e-01  9.4069827788586982e-02  6.3766143858731292e-02  3.5708236372682195e-02  1.5742693022402155e-02  5.2876745998877810e-03  1.3518310174530223e-03  2.6736110161840968e-04  4.1515694301612810e-05  5.1086372079323381e-06  5.0070105630924193e-07  3.9172127120135456e-08  2.4500888126670996e-09  1.2252822802604843e-10  4.8922314391729329e-12  1.5825706756113272e-13  3.8595934221688534e-15  6.8219448148419792e-17  4.6026070344033086e-08  5.9242796927786446e-07  6.0761232075839108e-06  4.9538647118269553e-05  3.1921673164262099e-04  1.6075575263862656e-03  6.2226741853444335e-03  1.8186684751224324e-02  4.0297260050633964e-02  7.0484209341977869e-02  1.0260869102730422e-01  1.2820444887191293e-01  1.3801342020903273e-01  1.2758783252953351e-01  1.0140712028528066e-01  6.8904515199192426e-02  3.8807273059483463e-02  1.7230406334408373e-02  5.8190860035890616e-03  1.4928976189545675e-03  2.9601231985907419e-04  4.6040984458460992e-05  5.6733693028708197e-06  5.5657180026731648e-07  4.3569494787588125e-08  2.7284093611117507e-09  1.3617259101735452e-10  5.4753527188833589e-12  1.7598695613935182e-13  3.6387114381353822e-15  3.8553932029160832e-16  4.1159663225043228e-08  5.2958783142345854e-07  5.4319340338154163e-06  4.4299088936139185e-05  2.8562572942181490e-04  1.4410220351802829e-03  5.5980936075107493e-03  1.6472788867566434e-02  3.6836667536439487e-02  6.4933315441999054e-02  9.4887541733120070e-02  1.1865187892138442e-01  1.2776963303504160e-01  1.1823504639751649e-01  9.3997755538015301e-02  6.3655909219654305e-02  3.5557889756656996e-02  1.5617801049166047e-02  5.2247080553289972e-03  1.3331802332066699e-03  2.6381255634832807e-04  4.1004060452111818e-05  5.0558057801876290e-06  4.9593447219996986e-07  3.8868432713321583e-08  2.4339448523909398e-09  1.2104048730652003e-10  5.0133617361651168e-12  1.3535989152075674e-13  5.7652812247115801e-15  2.9545476535903621e-16  2.9489638336425504e-08  3.7937053604374256e-07  3.8929515741220487e-06  3.1783334490244405e-05  2.0548210135315072e-04  1.0429376183145554e-03  4.1003095288473798e-03  1.2314939114051654e-02  2.8267243906049962e-02  5.0962360277296899e-02  7.5369550483004852e-02  9.4533499105192015e-02  1.0182008409486187e-01  9.4256976181910812e-02  7.4726461402491950e-02  4.9994421757185659e-02  2.7291048591345263e-02  1.1665420039686025e-02  3.8182185432007621e-03  9.6234947920062930e-04  1.8928614413180094e-04  2.9339496543639222e-05  3.6172016450345943e-06  3.5411116556528674e-07  2.7876384534626283e-08  1.7279211679045586e-09  8.7781415565131955e-11  3.5970790582439426e-12  5.8234388435788019e-14  1.5417364013252579e-14  -3.4076941515213084e-15  1.6926613395221833e-08  2.1776055342231703e-07  2.2360269835583607e-06  1.8286251322042408e-05  1.1868466170633718e-04  6.0745103096927105e-04  2.4279572435765267e-03  7.5010867268413281e-03  1.7881440767600162e-02  3.3448931766195053e-02  5.0725461280737974e-02  6.4354530515213434e-02  6.9503905535508601e-02  6.4148543657662899e-02  5.0254921009892421e-02  3.2772109408122883e-02  1.7234561308713266e-02  7.0906963564499109e-03  2.2572494041624988e-03  5.6020939502741138e-04  1.0922960099726473e-04  1.6871393842028880e-05  2.0770525520327622e-06  2.0260773128888468e-07  1.6130361571001763e-08  9.5614797438621650e-10  5.6782064022823657e-11  1.1078171803544393e-12  1.2709709889651764e-13  9.7729568795107421e-15  -8.0542411370943187e-15  7.7830925212457773e-09  1.0013811752215862e-07  1.0289793007539956e-06  8.4305879515321368e-06  5.4944355202568165e-05  2.8364746167629766e-04  1.1528146538015947e-03  3.6649370790324920e-03  9.0964322287408958e-03  1.7785058943929989e-02  2.7969333774935472e-02  3.6255193084967878e-02  3.9408163391871892e-02  3.6096915568636333e-02  2.7648024159943548e-02  1.7373118438262020e-02  8.7388982831698193e-03  3.4564976265500195e-03  1.0721362299133553e-03  2.6205542153263505e-04  5.0611785444849772e-05  7.7987370623764803e-06  9.5496180736534968e-07  9.3270664171420490e-08  7.4943528180652812e-09  4.0227087926383349e-10  3.7131757884650664e-11  -2.0552905244540944e-12  5.4463095404979804e-13  -7.3048281272205987e-14  1.0604052824032977e-14  2.8665189856271903e-09  3.6884169292727227e-08  3.7926154632975863e-07  3.1126360469924263e-06  2.0360093309640638e-05  1.0588333573558682e-04  4.3632301725783184e-04  1.4199113346573570e-03  3.6455318853351585e-03  7.4187158486296624e-03  1.2107041114676784e-02  1.6090347541750843e-02  1.7630239043138627e-02  1.5987006390399332e-02  1.1922733335939970e-02  7.2130475247153174e-03  3.4886129156122682e-03  1.3382738942528301e-03  4.0698594873154347e-04  9.8114994357000401e-05  1.8816594030171313e-05  2.8944303582829848e-06  3.5021409757926497e-07  3.5048967579212873e-08  2.6612199175269323e-09  1.4849279367076140e-10  2.0088354651629326e-11  -3.5491472973811120e-12  1.0209737366372995e-12  -2.2976601892084017e-13  7.5819031886707580e-14  8.4549689041088928e-10  1.0880183628001411e-08  1.1193853728443271e-07  9.1995563193534118e-07  6.0346690919754379e-06  3.1556112253920990e-05  1.3132655263342085e-04  4.3434090642689374e-04  1.1414150543285206e-03  2.3894710266018936e-03  4.0087918418397379e-03  5.4336778473952048e-03  5.9908546307420752e-03  5.3840328789137538e-03  3.9298928760723049e-03  2.3130809037294458e-03  1.0905443909377279e-03  4.1034413198887815e-04  1.2295849621681663e-04  2.9341651635817818e-05  5.6181417185686204e-06  8.5692446929345820e-07  1.0306035506078111e-07  1.0850603557268271e-08  6.1160254576853992e-10  8.5591382979423871e-11  -1.1152175738358095e-13  -1.2662767549580758e-12  8.0457142604913430e-13  -2.8890965841423818e-13  1.4206932390668595e-13  1.9970005822858993e-10  2.5700591676677402e-09  2.6452905279786538e-08  2.1762213889945278e-07  1.4304287087720704e-06  7.5076889223494836e-06  3.1443247122056160e-05  1.0502969644524619e-04  2.7985613099477247e-04  5.9568232581376946e-04  1.0158357288811749e-03  1.3932361750793050e-03  1.5418108870492372e-03  1.3782827833853186e-03  9.9385908962560006e-04  5.7630800228103331e-04  2.6784391539104229e-04  9.9496788058516024e-05  2.9525234529228174e-05  7.0304768090551019e-06  1.3414221822716316e-06  2.0081141092461705e-07  2.5270593664079797e-08  2.5125871170342468e-09  8.3023307185402160e-11  5.6259196364549019e-11  -1.1995376538112748e-11  2.4429537408580107e-12  -1.7754368487327446e-13  -9.9170461076076339e-14  1.0974032614740850e-13  3.7768358458578732e-11  4.8610351200772020e-10  5.0048747587486904e-09  4.1203124720285374e-08  2.7119130392931955e-07  1.4266890678581633e-06  5.9977642574500327e-06  2.0146991700733895e-05  5.4087158823422085e-05  1.1614156776314058e-04  1.9976115586367818e-04  2.7570286637562446e-04  3.0580465904109938e-04  2.7276029007634872e-04  1.9551422877868820e-04  1.1245030013288749e-04  5.1816771590601199e-05  1.9132332461820924e-05  5.6734231073194735e-06  1.3471885011062470e-06  2.5216367642504330e-07  3.8538386597279580e-08  5.1412069097154267e-09  2.8525576374865669e-10  6.1181364615047341e-11  1.1137550210430210e-11  -7.5376426713164041e-12  3.0833857257099332e-12  -8.6151354390332019e-13  1.7532765283014536e-13  -2.4072218259553438e-14  5.7192229898137422e-12  7.3615748795098789e-11  7.5809930356311056e-10  6.2440859365487814e-09  4.1132497901969139e-08  2.1669506266464013e-07  9.1294191599054392e-07  3.0759962318518245e-06  8.2902738748663622e-06  1.7881065403264561e-05  3.0886688164785087e-05  4.2762813598415284e-05  4.7487191516507210e-05  4.2308213699435225e-05  3.0238765400138598e-05  1.7336832108136154e-05  7.9769568206517975e-06  2.9447236625090223e-06  8.6735012635827956e-07  2.0222679782034877e-07  3.8609661024476043e-08  6.3955955017036661e-09  5.9101177295281521e-10  3.5775617916830526e-11  3.9071220018920271e-11  -1.1005839034886239e-11  1.2809583067465035e-12  7.5711043188039800e-13  -5.5402348838166436e-13  2.2850956046300539e-13  -1.1738269371582166e-13  6.9342958363808190e-13  8.9257859136865423e-12  9.1931599911317080e-11  7.5742828729762862e-10  4.9921689837242051e-09  2.6321696545246621e-08  1.1102819536067045e-07  3.7470217577239477e-07  1.0119247906047791e-06  2.1874702320690851e-06  3.7864859972062843e-06  5.2507976567933715e-06  5.8357950876063246e-06  5.2002648091618457e-06  3.7161861448105714e-06  2.1288055619565823e-06  9.7538978045100375e-07  3.5609365643640941e-07  1.0414977160864785e-07  2.5375034351821724e-08  5.1635925948381688e-09  5.9733656664946155e-10  3.0346844632557491e-11  4.6408364097976930e-11  -4.4229888786138027e-12  -3.6454716600720096e-12  2.4923651268242097e-12  -7.3593375527481749e-13  5.6314575006768116e-14  6.5833872286988865e-14  -7.9186493486748252e-14  6.7307462187718270e-14  8.6644854001592847e-13  8.9247857372814033e-12  7.3546711018344529e-11  4.8490198286015500e-10  2.5579569392179091e-09  1.0797174926324390e-08  3.6471083093827487e-08  9.8598688379385291e-08  2.1338550453187047e-07  3.6977986007387545e-07  5.1325098300747325e-07  5.7070417512204771e-07  5.0832672671499844e-07  3.6246997595459640e-07  2.0684637423246349e-07  9.4825221559970210e-08  3.5460969036335876e-08  1.0967163346613600e-08  2.5631949539441196e-09  2.9557919672879182e-10  3.2984360331705437e-1