<?xml version="1.0"?>
<VTKFile type="UnstructuredGrid"  version="0.1"  >
<UnstructuredGrid>
<Piece  NumberOfPoints="441" NumberOfCells="800">
<Points>
<DataArray  type="Float64"  NumberOfComponents="3"  format="ascii">-0.5 -0.5 0  -0.45 -0.5 0  -0.4 -0.5 0  -0.35 -0.5 0  -0.3 -0.5 0  -0.25 -0.5 0  -0.2 -0.5 0  -0.15 -0.5 0  -0.09999999999999998 -0.5 0  -0.04999999999999999 -0.5 0  0 -0.5 0  0.05000000000000004 -0.5 0  0.09999999999999998 -0.5 0  0.15 -0.5 0  0.2 -0.5 0  0.25 -0.5 0  0.3 -0.5 0  0.35 -0.5 0  0.4 -0.5 0  0.45 -0.5 0  0.5 -0.5 0  -0.5 -0.45 0  -0.45 -0.45 0  -0.4 -0.45 0  -0.35 -0.45 0  -0.3 -0.45 0  -0.25 -0.45 0  -0.2 -0.45 0  -0.15 -0.45 0  -0.09999999999999998 -0.45 0  -0.04999999999999999 -0.45 0  0 -0.45 0  0.05000000000000004 -0.45 0  0.09999999999999998 -0.45 0  0.15 -0.45 0  0.2 -0.45 0  0.25 -0.45 0  0.3 -0.45 0  0.35 -0.45 0  0.4 -0.45 0  0.45 -0.45 0  0.5 -0.45 0  -0.5 -0.4 0  -0.45 -0.4 0  -0.4 -0.4 0  -0.35 -0.4 0  -0.3 -0.4 0  -0.25 -0.4 0  -0.2 -0.4 0  -0.15 -0.4 0  -0.09999999999999998 -0.4 0  -0.04999999999999999 -0.4 0  0 -0.4 0  0.05000000000000004 -0.4 0  0.09999999999999998 -0.4 0  0.15 -0.4 0  0.2 -0.4 0  0.25 -0.4 0  0.3 -0.4 0  0.35 -0.4 0  0.4 -0.4 0  0.45 -0.4 0  0.5 -0.4 0  -0.5 -0.35 0  -0.45 -0.35 0  -0.4 -0.35 0  -0.35 -0.35 0  -0.3 -0.35 0  -0.25 -0.35 0  -0.2 -0.35 0  -0.15 -0.35 0  -0.09999999999999998 -0.35 0  -0.04999999999999999 -0.35 0  0 -0.35 0  0.05000000000000004 -0.35 0  0.09999999999999998 -0.35 0  0.15 -0.35 0  0.2 -0.35 0  0.25 -0.35 0  0.3 -0.35 0  0.35 -0.35 0  0.4 -0.35 0  0.45 -0.35 0  0.5 -0.35 0  -0.5 -0.3 0  -0.45 -0.3 0  -0.4 -0.3 0  -0.35 -0.3 0  -0.3 -0.3 0  -0.25 -0.3 0  -0.2 -0.3 0  -0.15 -0.3 0  -0.09999999999999998 -0.3 0  -0.04999999999999999 -0.3 0  0 -0.3 0  0.05000000000000004 -0.3 0  0.09999999999999998 -0.3 0  0.15 -0.3 0  0.2 -0.3 0  0.25 -0.3 0  0.3 -0.3 0  0.35 -0.3 0  0.4 -0.3 0  0.45 -0.3 0  0.5 -0.3 0  -0.5 -0.25 0  -0.45 -0.25 0  -0.4 -0.25 0  -0.35 -0.25 0  -0.3 -0.25 0  -0.25 -0.25 0  -0.2 -0.25 0  -0.15 -0.25 0  -0.09999999999999998 -0.25 0  -0.04999999999999999 -0.25 0  0 -0.25 0  0.05000000000000004 -0.25 0  0.09999999999999998 -0.25 0  0.15 -0.25 0  0.2 -0.25 0  0.25 -0.25 0  0.3 -0.25 0  0.35 -0.25 0  0.4 -0.25 0  0.45 -0.25 0  0.5 -0.25 0  -0.5 -0.2 0  -0.45 -0.2 0  -0.4 -0.2 0  -0.35 -0.2 0  -0.3 -0.2 0  -0.25 -0.2 0  -0.2 -0.2 0  -0.15 -0.2 0  -0.09999999999999998 -0.2 0  -0.04999999999999999 -0.2 0  0 -0.2 0  0.05000000000000004 -0.2 0  0.09999999999999998 -0.2 0  0.15 -0.2 0  0.2 -0.2 0  0.25 -0.2 0  0.3 -0.2 0  0.35 -0.2 0  0.4 -0.2 0  0.45 -0.2 0  0.5 -0.2 0  -0.5 -0.15 0  -0.45 -0.15 0  -0.4 -0.15 0  -0.35 -0.15 0  -0.3 -0.15 0  -0.25 -0.15 0  -0.2 -0.15 0  -0.15 -0.15 0  -0.09999999999999998 -0.15 0  -0.04999999999999999 -0.15 0  0 -0.15 0  0.05000000000000004 -0.15 0  0.09999999999999998 -0.15 0  0.15 -0.15 0  0.2 -0.15 0  0.25 -0.15 0  0.3 -0.15 0  0.35 -0.15 0  0.4 -0.15 0  0.45 -0.15 0  0.5 -0.15 0  -0.5 -0.09999999999999998 0  -0.45 -0.09999999999999998 0  -0.4 -0.09999999999999998 0  -0.35 -0.09999999999999998 0  -0.3 -0.09999999999999998 0  -0.25 -0.09999999999999998 0  -0.2 -0.09999999999999998 0  -0.15 -0.09999999999999998 0  -0.09999999999999998 -0.09999999999999998 0  -0.04999999999999999 -0.09999999999999998 0  0 -0.09999999999999998 0  0.05000000000000004 -0.09999999999999998 0  0.09999999999999998 -0.09999999999999998 0  0.15 -0.09999999999999998 0  0.2 -0.09999999999999998 0  0.25 -0.09999999999999998 0  0.3 -0.09999999999999998 0  0.35 -0.09999999999999998 0  0.4 -0.09999999999999998 0  0.45 -0.09999999999999998 0  0.5 -0.09999999999999998 0  -0.5 -0.04999999999999999 0  -0.45 -0.04999999999999999 0  -0.4 -0.04999999999999999 0  -0.35 -0.04999999999999999 0  -0.3 -0.04999999999999999 0  -0.25 -0.04999999999999999 0  -0.2 -0.04999999999999999 0  -0.15 -0.04999999999999999 0  -0.09999999999999998 -0.04999999999999999 0  -0.04999999999999999 -0.04999999999999999 0  0 -0.04999999999999999 0  0.05000000000000004 -0.04999999999999999 0  0.09999999999999998 -0.04999999999999999 0  0.15 -0.04999999999999999 0  0.2 -0.04999999999999999 0  0.25 -0.04999999999999999 0  0.3 -0.04999999999999999 0  0.35 -0.04999999999999999 0  0.4 -0.04999999999999999 0  0.45 -0.04999999999999999 0  0.5 -0.04999999999999999 0  -0.5 0 0  -0.45 0 0  -0.4 0 0  -0.35 0 0  -0.3 0 0  -0.25 0 0  -0.2 0 0  -0.15 0 0  -0.09999999999999998 0 0  -0.04999999999999999 0 0  0 0 0  0.05000000000000004 0 0  0.09999999999999998 0 0  0.15 0 0  0.2 0 0  0.25 0 0  0.3 0 0  0.35 0 0  0.4 0 0  0.45 0 0  0.5 0 0  -0.5 0.05000000000000004 0  -0.45 0.05000000000000004 0  -0.4 0.05000000000000004 0  -0.35 0.05000000000000004 0  -0.3 0.05000000000000004 0  -0.25 0.05000000000000004 0  -0.2 0.05000000000000004 0  -0.15 0.05000000000000004 0  -0.09999999999999998 0.05000000000000004 0  -0.04999999999999999 0.05000000000000004 0  0 0.05000000000000004 0  0.05000000000000004 0.05000000000000004 0  0.09999999999999998 0.05000000000000004 0  0.15 0.05000000000000004 0  0.2 0.05000000000000004 0  0.25 0.05000000000000004 0  0.3 0.05000000000000004 0  0.35 0.05000000000000004 0  0.4 0.05000000000000004 0  0.45 0.05000000000000004 0  0.5 0.05000000000000004 0  -0.5 0.09999999999999998 0  -0.45 0.09999999999999998 0  -0.4 0.09999999999999998 0  -0.35 0.09999999999999998 0  -0.3 0.09999999999999998 0  -0.25 0.09999999999999998 0  -0.2 0.09999999999999998 0  -0.15 0.09999999999999998 0  -0.09999999999999998 0.09999999999999998 0  -0.04999999999999999 0.09999999999999998 0  0 0.09999999999999998 0  0.05000000000000004 0.09999999999999998 0  0.09999999999999998 0.09999999999999998 0  0.15 0.09999999999999998 0  0.2 0.09999999999999998 0  0.25 0.09999999999999998 0  0.3 0.09999999999999998 0  0.35 0.09999999999999998 0  0.4 0.09999999999999998 0  0.45 0.09999999999999998 0  0.5 0.09999999999999998 0  -0.5 0.15 0  -0.45 0.15 0  -0.4 0.15 0  -0.35 0.15 0  -0.3 0.15 0  -0.25 0.15 0  -0.2 0.15 0  -0.15 0.15 0  -0.09999999999999998 0.15 0  -0.04999999999999999 0.15 0  0 0.15 0  0.05000000000000004 0.15 0  0.09999999999999998 0.15 0  0.15 0.15 0  0.2 0.15 0  0.25 0.15 0  0.3 0.15 0  0.35 0.15 0  0.4 0.15 0  0.45 0.15 0  0.5 0.15 0  -0.5 0.2 0  -0.45 0.2 0  -0.4 0.2 0  -0.35 0.2 0  -0.3 0.2 0  -0.25 0.2 0  -0.2 0.2 0  -0.15 0.2 0  -0.09999999999999998 0.2 0  -0.04999999999999999 0.2 0  0 0.2 0  0.05000000000000004 0.2 0  0.09999999999999998 0.2 0  0.15 0.2 0  0.2 0.2 0  0.25 0.2 0  0.3 0.2 0  0.35 0.2 0  0.4 0.2 0  0.45 0.2 0  0.5 0.2 0  -0.5 0.25 0  -0.45 0.25 0  -0.4 0.25 0  -0.35 0.25 0  -0.3 0.25 0  -0.25 0.25 0  -0.2 0.25 0  -0.15 0.25 0  -0.09999999999999998 0.25 0  -0.04999999999999999 0.25 0  0 0.25 0  0.05000000000000004 0.25 0  0.09999999999999998 0.25 0  0.15 0.25 0  0.2 0.25 0  0.25 0.25 0  0.3 0.25 0  0.35 0.25 0  0.4 0.25 0  0.45 0.25 0  0.5 0.25 0  -0.5 0.3 0  -0.45 0.3 0  -0.4 0.3 0  -0.35 0.3 0  -0.3 0.3 0  -0.25 0.3 0  -0.2 0.3 0  -0.15 0.3 0  -0.09999999999999998 0.3 0  -0.04999999999999999 0.3 0  0 0.3 0  0.05000000000000004 0.3 0  0.09999999999999998 0.3 0  0.15 0.3 0  0.2 0.3 0  0.25 0.3 0  0.3 0.3 0  0.35 0.3 0  0.4 0.3 0  0.45 0.3 0  0.5 0.3 0  -0.5 0.35 0  -0.45 0.35 0  -0.4 0.35 0  -0.35 0.35 0  -0.3 0.35 0  -0.25 0.35 0  -0.2 0.35 0  -0.15 0.35 0  -0.09999999999999998 0.35 0  -0.04999999999999999 0.35 0  0 0.35 0  0.05000000000000004 0.35 0  0.09999999999999998 0.35 0  0.15 0.35 0  0.2 0.35 0  0.25 0.35 0  0.3 0.35 0  0.35 0.35 0  0.4 0.35 0  0.45 0.35 0  0.5 0.35 0  -0.5 0.4 0  -0.45 0.4 0  -0.4 0.4 0  -0.35 0.4 0  -0.3 0.4 0  -0.25 0.4 0  -0.2 0.4 0  -0.15 0.4 0  -0.09999999999999998 0.4 0  -0.04999999999999999 0.4 0  0 0.4 0  0.05000000000000004 0.4 0  0.09999999999999998 0.4 0  0.15 0.4 0  0.2 0.4 0  0.25 0.4 0  0.3 0.4 0  0.35 0.4 0  0.4 0.4 0  0.45 0.4 0  0.5 0.4 0  -0.5 0.45 0  -0.45 0.45 0  -0.4 0.45 0  -0.35 0.45 0  -0.3 0.45 0  -0.25 0.45 0  -0.2 0.45 0  -0.15 0.45 0  -0.09999999999999998 0.45 0  -0.04999999999999999 0.45 0  0 0.45 0  0.05000000000000004 0.45 0  0.09999999999999998 0.45 0  0.15 0.45 0  0.2 0.45 0  0.25 0.45 0  0.3 0.45 0  0.35 0.45 0  0.4 0.45 0  0.45 0.45 0  0.5 0.45 0  -0.5 0.5 0  -0.45 0.5 0  -0.4 0.5 0  -0.35 0.5 0  -0.3 0.5 0  -0.25 0.5 0  -0.2 0.5 0  -0.15 0.5 0  -0.09999999999999998 0.5 0  -0.04999999999999999 0.5 0  0 0.5 0  0.05000000000000004 0.5 0  0.09999999999999998 0.5 0  0.15 0.5 0  0.2 0.5 0  0.25 0.5 0  0.3 0.5 0  0.35 0.5 0  0.4 0.5 0  0.45 0.5 0  0.5 0.5 0  </DataArray>
</Points>
<Cells>
[...]
<PointData  Scalars="f_18-0"> 
<DataArray  type="Float64"  Name="f_18-0"  format="ascii">4.1974913109790112e-17  2.5045587315891307e-16  -3.2900844247506552e-16  -1.0508189429877440e-15  1.5239871155706366e-15  5.4968733832185382e-15  1.0021923314237502e-17  -1.6769483608898164e-14  -2.5952955307043272e-14  -1.2828389501677690e-14  8.7079026279616691e-15  1.5792546373633767e-14  7.5067153744872182e-15  -8.0651672102231111e-16  -1.8282573131775770e-15  -5.6883446043214210e-17  3.5768288457335883e-16  -1.2001329220918232e-17  -6.5545198420070921e-17  1.5602731487885627e-17  1.1805958404141793e-17  2.2647416457825198e-16  -3.2237676370057867e-16  -2.8557256177874877e-16  1.6726702329426539e-15  8.8277771183101917e-16  -7.6772757384206010e-15  -9.5821398328361742e-15  1.5185000274753113e-14  4.8096203026376669e-14  4.4571307310332798e-14  2.5482200259853277e-15  -3.0149147826381722e-14  -2.5338317172919108e-14  -4.6782853655455713e-15  4.2578907720909280e-15  1.6592159511122559e-15  -7.5305173975158303e-16  -2.8568216030114232e-16  1.7558122163656030e-16  1.9283762288671463e-17  -3.9221330193481616e-17  -6.2017219072595938e-16  -6.8067124691330094e-17  1.7690423670586858e-15  -1.3267505468131812e-15  -7.9271442143647963e-15  8.1592238205511749e-15  3.9584738809395402e-14  4.9055590037481260e-15  -1.1776330518265785e-13  -1.8787084326517603e-13  -9.1466770897844224e-14  6.5842290086414946e-14  1.1334136790404960e-13  5.0230942172477247e-14  -7.7738218059187218e-15  -1.2121082281226476e-14  5.4429293520998253e-16  2.2999101697648200e-15  -3.5367769239884716e-16  -3.5595583154024439e-16  1.5378587371556490e-16  -1.5542691183654979e-16  1.8930797407721347e-15  -2.5370864817858460e-15  -6.0753490515801402e-15  1.8804891432725184e-14  1.9375818372442618e-14  -9.3186146463703842e-14  -1.4014980564483837e-13  1.8324398659402914e-13  6.4302999133167733e-13  6.0088047515395993e-13  2.2982089935142885e-14  -4.1224646347572594e-13  -3.2841739247021562e-13  -4.8558756089861721e-14  5.7505941394900328e-14  1.6540749933526663e-14  -1.0889661135539187e-14  -2.0633316561523602e-15  2.3513812516391592e-15  -2.1026545407886918e-16  3.6299913402279061e-15  -2.9311032549660798e-15  -5.0478888635668711e-15  2.2750432425414557e-14  -3.0008676481949737e-15  -1.1387530184995181e-13  7.1733305628635069e-14  5.6041469975927521e-13  1.4608247590896858e-13  -1.6354296631160351e-12  -2.7014417453020011e-12  -1.2910413346083069e-12  9.8972079081445092e-13  1.6099615654567903e-12  6.5791634541972394e-13  -1.3803575693515269e-13  -1.5510292366635005e-13  2.0801375580750278e-14  2.7218562323713067e-14  -8.2433711313768213e-15  -2.8829998814748391e-15  -3.2954675012214201e-15  -6.2343856877112573e-15  2.3500257555931105e-14  -1.2380259703568921e-14  -1.0746678514321758e-13  2.0383232802683943e-13  3.7256177025134911e-13  -1.1755429450806264e-12  -2.1716276900939536e-12  2.3263644520708777e-12  9.2151042224615283e-12  8.6772816305728124e-12  1.5857561346986039e-13  -6.0256785853531749e-12  -4.5412422836171042e-12  -5.0156819583965383e-13  8.1796833033175050e-13  1.5591320945802156e-13  -1.5847640945445283e-13  -4.4571825436565808e-15  2.9294592335337116e-14  -1.5919324584540628e-14  2.2263407955264323e-14  -5.7526459605794578e-15  -1.0866138989037749e-13  2.4917428252538380e-13  1.8450545113995602e-13  -1.5556358639724104e-12  3.3367062025264556e-13  7.8861484784421459e-12  3.2878685990665107e-12  -2.2797502048904725e-11  -3.9160150273334673e-11  -1.8289171084010294e-11  1.4982740379796645e-11  2.2952777146595403e-11  8.5547235742208227e-12  -2.3413856073012408e-12  -1.9277491477285657e-12  4.6695210376581976e-13  2.8447146507413804e-13  -1.4750112082052442e-13  2.1579964217584938e-14  1.6358439878021650e-14  -1.1873990200037692e-13  2.2235333787592732e-13  1.7515515546922654e-13  -1.6261457768967763e-12  1.7286974256412126e-12  6.5107391055411340e-12  -1.4037837812048884e-11  -3.3553419032986560e-11  2.8574064519395500e-11  1.3253045394230172e-10  1.2562452872441888e-10  -5.3599346415150568e-13  -8.8144859361218567e-11  -6.2537901312643855e-11  -4.3594333840832623e-12  1.1463941893191073e-11  1.0033873534108402e-12  -2.1592164479470950e-12  2.9576758772523519e-13  7.3243856353173001e-14  -1.0975338985973134e-13  1.0238158986957700e-13  3.5489449724525641e-13  -1.6309354949264770e-12  1.8427691337730870e-12  5.5769555522167588e-12  -1.9460226619023805e-11  -6.0767460160279302e-12  1.0911417415883174e-10  6.6501938941267182e-11  -3.1736307845413959e-10  -5.6999357324920049e-10  -2.5827357932003489e-10  2.2728599718845000e-10  3.2667609165751941e-10  1.0952469785179542e-10  -3.8509650294403561e-11  -2.2646799918663742e-11  8.7827399298094625e-12  2.1220121973082709e-12  -4.3433909573714297e-14  -9.9075602032741605e-14  5.4404880289149011e-13  -1.3009607233492859e-12  5.9608754547597428e-13  6.5945223477105190e-12  -2.0143725008303568e-11  4.1922213533987503e-12  1.0481982965478452e-10  -1.5045332540410886e-10  -5.1699554580347783e-10  3.3114200357345615e-10  1.9150664341407666e-09  1.8219262473051231e-09  -5.4846458805945704e-11  -1.2884301985566440e-09  -8.5751169696643328e-10  -2.0788084046143016e-11  1.5788930117913215e-10  -4.7273495144359409e-12  -2.6265318840280545e-11  -2.9206865630401344e-13  3.3875197605073988e-13  -2.0825678981820903e-13  -1.6488485740399838e-12  7.8568622375905320e-12  -1.5448427880821865e-11  -4.7862918947484448e-12  1.0743154762191968e-10  -2.0333851205583470e-10  -2.5375319339737685e-10  1.4653193479818159e-09  1.2799773424714840e-09  -4.4131771244597057e-09  -8.3403074474535941e-09  -3.6205711835708030e-09  3.4480705402691840e-09  4.6414177875693043e-09  1.3797430385845868e-09  -6.2018773099377502e-10  -2.3392064661232260e-10  1.4871832861125537e-10  -3.0322901062437684e-13  7.1082606589956132e-13  -2.1004476993781951e-12  4.2145021817056611e-12  -1.2115710941320275e-12  -2.8127198445992824e-11  1.1054291792612678e-10  -1.6022615146548566e-10  -2.6024963837720213e-10  1.5172704677909245e-09  -1.2109302309487268e-09  -7.9373274617830732e-09  3.3921030181701269e-09  2.7893062928890437e-08  2.6437455850792953e-08  -1.5480797146866584e-09  -1.8618849738106205e-08  -1.1424737323242207e-08  7.5539095871008395e-10  2.4366068033595284e-09  -2.2493196928641830e-10  4.5308500947073979e-15  3.4276166145686380e-13  -2.2510255094069703e-12  9.7978427294891647e-12  -2.9913036580539185e-11  5.4877611420374589e-11  1.2151519992225439e-11  -4.6674034618429441e-10  1.4748483363646483e-09  -1.1743615766682456e-09  -5.9987894635700886e-09  1.8468176754330075e-08  2.4217229793340638e-08  -6.1321275101186492e-08  -1.2245163310317736e-07  -4.6843711353071850e-08  6.2479849312691182e-08  8.8177857932979456e-08  4.5569006077342279e-08  1.2127522056910183e-08  8.8727299519915434e-09  2.1109583139387081e-13  -3.1019301051917035e-13  9.2089460863064820e-14  4.6640686289227008e-12  -3.3400643827963919e-11  1.4518450760076947e-10  -4.2727962354356710e-10  6.8370523771851231e-10  6.7905379151577701e-10  -7.4640168549883518e-09  1.7772666616293694e-08  6.1754445569880354e-10  -1.2028097352772982e-07  2.5013772751020219e-08  4.3517087534061000e-07  5.0957911132384292e-07  4.1058710699251134e-07  6.7492768221057877e-07  1.0514436566245938e-06  9.6203958817325539e-07  4.7299789263477945e-07  1.0911785656742855e-13  -3.7993618718689292e-13  1.5904840595632354e-12  -4.5876301505433268e-12  2.3623850234183288e-12  6.8300641753321670e-11  -5.0358400117602239e-10  2.1707933792258328e-09  -6.0687476135775198e-09  7.7665144315604510e-09  1.8254082894958232e-08  -1.1065843435501038e-07  2.0116612110643120e-07  5.1942707126421171e-07  -2.7657801745184741e-07  1.4518389130392410e-06  1.0843920241413517e-05  2.5028521364336979e-05  3.2092098528844734e-05  2.4442213920801159e-05  1.1288511515908932e-05  -3.1217109741509941e-14  -3.7405503731468671e-14  7.1664941619652339e-13  -5.0737409276995252e-12  2.3887898211498266e-11  -7.3030959541624045e-11  5.2706957175486638e-11  1.0111921797024612e-09  -7.7163660948202846e-09  3.2816167810959460e-08  -8.4732109981202707e-08  7.0405487269161151e-08  4.2297195755744836e-07  -8.2898270868508489e-07  8.7177069248299903e-06  5.7562582483970768e-05  1.8353289736786717e-04  3.7375794709660232e-04  4.7567064442578929e-04  3.7099633310127747e-04  1.7726744466225254e-04  -2.9460690907429984e-14  9.1222192599992330e-14  -2.8132407876248265e-13  -1.1822976498738822e-13  8.9526328617261915e-12  -7.1938740327340192e-11  3.6281491702066791e-10  -1.1819744224443955e-09  1.1136387854262081e-09  1.5245025204694892e-08  -1.2071160629825600e-07  5.2503857233764332e-07  -5.2346058349612192e-07  9.4761706921588127e-06  9.3633621045574399e-05  4.6839426202118455e-04  1.6192397190245135e-03  3.4068301113496266e-03  4.3412434171716443e-03  3.3996448772487119e-03  1.6105053367603925e-03  7.7101404192681053e-15  8.9259319472103953e-15  -1.7688154344442922e-13  1.2125435295772560e-12  -4.8171117635762020e-12  4.3479355897218831e-12  1.0460487107308079e-10  -1.0069022289176847e-09  5.5577981411645367e-09  -1.9549570097639097e-08  2.6261253327632374e-08  3.6541123629673605e-07  1.2690313157349411e-06  5.8269766018234359e-05  4.6254571996607945e-04  2.6593773712039418e-03  9.0206788321077324e-03  1.7841480634194610e-02  2.2024428928477644e-02  1.7338077786622563e-02  8.3224886661002508e-03  5.1759850495865249e-15  -1.9913121691733767e-14  7.3748923923273905e-14  -4.3760030268924275e-14  -1.8378975934549002e-12  1.6344516880147399e-11  -7.9240187869222197e-11  1.6347219002909369e-10  1.0348230249730803e-09  -1.3551925062250392e-08  9.6570354417882604e-08  1.0751048826968138e-07  1.1964869435861316e-05  1.8208431268915552e-04  1.6134017417143399e-03  9.0279628721012372e-03  2.7787623722286846e-02  5.1292854458287775e-02  6.1982762386742135e-02  4.9760305440066745e-02  2.4716022687649934e-02  -2.5614125335200053e-15  1.8079231531735892e-15  2.2119267948280367e-14  -2.3298628585245103e-13  1.2239907586038975e-12  -2.8934457650400260e-12  -1.3617184998392409e-11  2.0027025570684139e-10  -1.2304419959533813e-09  4.3411807257231014e-09  2.7279859684518627e-08  7.6763267262825546e-07  2.5462757065797745e-05  3.6511490910458186e-04  3.3934956714192833e-03  1.7726341798559780e-02  5.1070129325672724e-02  9.1206098261423424e-02  1.0964606563316430e-01  8.9013065523264087e-02  4.5015348708227633e-02  -4.8456736296118651e-16  3.5309918782065617e-15  -1.9197213921002964e-14  6.3808891000105555e-14  5.8030854471457865e-14  -2.3937303314155558e-12  1.7641782736408773e-11  -7.0413837281816225e-11  3.5267122517158861e-11  2.3525746435017437e-09  1.1226021499612138e-08  1.2913831466011879e-06  3.0807377953769219e-05  4.7481285775123079e-04  4.3320399243167466e-03  2.1885993238195747e-02  6.2240649950426413e-02  1.1008107377953961e-01  1.3160384699313066e-01  1.0679592373901201e-01  5.4590548223200072e-02  </DataArray> 
</PointData> 
</Piece>
</UnstructuredGrid>
</VTKFile>