<?xml version="1.0"?>
<VTKFile type="UnstructuredGrid"  version="0.1"  >
<UnstructuredGrid>
<Piece  NumberOfPoints="961" NumberOfCells="1800">
<Points>
<DataArray  type="Float64"  NumberOfComponents="3"  format="ascii">0 0 0  0.06666666666666667 0 0  0.1333333333333333 0 0  0.2 0 0  0.2666666666666667 0 0  0.3333333333333333 0 0  0.4 0 0  0.4666666666666667 0 0  0.5333333333333333 0 0  0.6 0 0  0.6666666666666666 0 0  0.7333333333333333 0 0  0.8 0 0  0.8666666666666667 0 0  0.9333333333333333 0 0  1 0 0  1.066666666666667 0 0  1.133333333333333 0 0  1.2 0 0  1.266666666666667 0 0  1.333333333333333 0 0  1.4 0 0  1.466666666666667 0 0  1.533333333333333 0 0  1.6 0 0  1.666666666666667 0 0  1.733333333333333 0 0  1.8 0 0  1.866666666666667 0 0  1.933333333333333 0 0  2 0 0  0 0.06666666666666667 0  0.06666666666666667 0.06666666666666667 0  0.1333333333333333 0.06666666666666667 0  0.2 0.06666666666666667 0  0.2666666666666667 0.06666666666666667 0  0.3333333333333333 0.06666666666666667 0  0.4 0.06666666666666667 0  0.4666666666666667 0.06666666666666667 0  0.5333333333333333 0.06666666666666667 0  0.6 0.06666666666666667 0  0.6666666666666666 0.06666666666666667 0  0.7333333333333333 0.06666666666666667 0  0.8 0.06666666666666667 0  0.8666666666666667 0.06666666666666667 0  0.9333333333333333 0.06666666666666667 0  1 0.06666666666666667 0  1.066666666666667 0.06666666666666667 0  1.133333333333333 0.06666666666666667 0  1.2 0.06666666666666667 0  1.266666666666667 0.06666666666666667 0  1.333333333333333 0.06666666666666667 0  1.4 0.06666666666666667 0  1.466666666666667 0.06666666666666667 0  1.533333333333333 0.06666666666666667 0  1.6 0.06666666666666667 0  1.666666666666667 0.06666666666666667 0  1.733333333333333 0.06666666666666667 0  1.8 0.06666666666666667 0  1.866666666666667 0.06666666666666667 0  1.933333333333333 0.06666666666666667 0  2 0.06666666666666667 0  0 0.1333333333333333 0  0.06666666666666667 0.1333333333333333 0  0.1333333333333333 0.1333333333333333 0  0.2 0.1333333333333333 0  0.2666666666666667 0.1333333333333333 0  0.3333333333333333 0.1333333333333333 0  0.4 0.1333333333333333 0  0.4666666666666667 0.1333333333333333 0  0.5333333333333333 0.1333333333333333 0  0.6 0.1333333333333333 0  0.6666666666666666 0.1333333333333333 0  0.7333333333333333 0.1333333333333333 0  0.8 0.1333333333333333 0  0.8666666666666667 0.1333333333333333 0  0.9333333333333333 0.1333333333333333 0  1 0.1333333333333333 0  1.066666666666667 0.1333333333333333 0  1.133333333333333 0.1333333333333333 0  1.2 0.1333333333333333 0  1.266666666666667 0.1333333333333333 0  1.333333333333333 0.1333333333333333 0  1.4 0.1333333333333333 0  1.466666666666667 0.1333333333333333 0  1.533333333333333 0.1333333333333333 0  1.6 0.1333333333333333 0  1.666666666666667 0.1333333333333333 0  1.733333333333333 0.1333333333333333 0  1.8 0.1333333333333333 0  1.866666666666667 0.1333333333333333 0  1.933333333333333 0.1333333333333333 0  2 0.1333333333333333 0  0 0.2 0  0.06666666666666667 0.2 0  0.1333333333333333 0.2 0  0.2 0.2 0  0.2666666666666667 0.2 0  0.3333333333333333 0.2 0  0.4 0.2 0  0.4666666666666667 0.2 0  0.5333333333333333 0.2 0  0.6 0.2 0  0.6666666666666666 0.2 0  0.7333333333333333 0.2 0  0.8 0.2 0  0.8666666666666667 0.2 0  0.9333333333333333 0.2 0  1 0.2 0  1.066666666666667 0.2 0  1.133333333333333 0.2 0  1.2 0.2 0  1.266666666666667 0.2 0  1.333333333333333 0.2 0  1.4 0.2 0  1.466666666666667 0.2 0  1.533333333333333 0.2 0  1.6 0.2 0  1.666666666666667 0.2 0  1.733333333333333 0.2 0  1.8 0.2 0  1.866666666666667 0.2 0  1.933333333333333 0.2 0  2 0.2 0  0 0.2666666666666667 0  0.06666666666666667 0.2666666666666667 0  0.1333333333333333 0.2666666666666667 0  0.2 0.2666666666666667 0  0.2666666666666667 0.2666666666666667 0  0.3333333333333333 0.2666666666666667 0  0.4 0.2666666666666667 0  0.4666666666666667 0.2666666666666667 0  0.5333333333333333 0.2666666666666667 0  0.6 0.2666666666666667 0  0.6666666666666666 0.2666666666666667 0  0.7333333333333333 0.2666666666666667 0  0.8 0.2666666666666667 0  0.8666666666666667 0.2666666666666667 0  0.9333333333333333 0.2666666666666667 0  1 0.2666666666666667 0  1.066666666666667 0.2666666666666667 0  1.133333333333333 0.2666666666666667 0  1.2 0.2666666666666667 0  1.266666666666667 0.2666666666666667 0  1.333333333333333 0.2666666666666667 0  1.4 0.2666666666666667 0  1.466666666666667 0.2666666666666667 0  1.533333333333333 0.2666666666666667 0  1.6 0.2666666666666667 0  1.666666666666667 0.2666666666666667 0  1.733333333333333 0.2666666666666667 0  1.8 0.2666666666666667 0  1.866666666666667 0.2666666666666667 0  1.933333333333333 0.2666666666666667 0  2 0.2666666666666667 0  0 0.3333333333333333 0  0.06666666666666667 0.3333333333333333 0  0.1333333333333333 0.3333333333333333 0  0.2 0.3333333333333333 0  0.2666666666666667 0.3333333333333333 0  0.3333333333333333 0.3333333333333333 0  0.4 0.3333333333333333 0  0.4666666666666667 0.3333333333333333 0  0.5333333333333333 0.3333333333333333 0  0.6 0.3333333333333333 0  0.6666666666666666 0.3333333333333333 0  0.7333333333333333 0.3333333333333333 0  0.8 0.3333333333333333 0  0.8666666666666667 0.3333333333333333 0  0.9333333333333333 0.3333333333333333 0  1 0.3333333333333333 0  1.066666666666667 0.3333333333333333 0  1.133333333333333 0.3333333333333333 0  1.2 0.3333333333333333 0  1.266666666666667 0.3333333333333333 0  1.333333333333333 0.3333333333333333 0  1.4 0.3333333333333333 0  1.466666666666667 0.3333333333333333 0  1.533333333333333 0.3333333333333333 0  1.6 0.3333333333333333 0  1.666666666666667 0.3333333333333333 0  1.733333333333333 0.3333333333333333 0  1.8 0.3333333333333333 0  1.866666666666667 0.3333333333333333 0  1.933333333333333 0.3333333333333333 0  2 0.3333333333333333 0  0 0.4 0  0.06666666666666667 0.4 0  0.1333333333333333 0.4 0  0.2 0.4 0  0.2666666666666667 0.4 0  0.3333333333333333 0.4 0  0.4 0.4 0  0.4666666666666667 0.4 0  0.5333333333333333 0.4 0  0.6 0.4 0  0.6666666666666666 0.4 0  0.7333333333333333 0.4 0  0.8 0.4 0  0.8666666666666667 0.4 0  0.9333333333333333 0.4 0  1 0.4 0  1.066666666666667 0.4 0  1.133333333333333 0.4 0  1.2 0.4 0  1.266666666666667 0.4 0  1.333333333333333 0.4 0  1.4 0.4 0  1.466666666666667 0.4 0  1.533333333333333 0.4 0  1.6 0.4 0  1.666666666666667 0.4 0  1.733333333333333 0.4 0  1.8 0.4 0  1.866666666666667 0.4 0  1.933333333333333 0.4 0  2 0.4 0  0 0.4666666666666667 0  0.06666666666666667 0.4666666666666667 0  0.1333333333333333 0.4666666666666667 0  0.2 0.4666666666666667 0  0.2666666666666667 0.4666666666666667 0  0.3333333333333333 0.4666666666666667 0  0.4 0.4666666666666667 0  0.4666666666666667 0.4666666666666667 0  0.5333333333333333 0.4666666666666667 0  0.6 0.4666666666666667 0  0.6666666666666666 0.4666666666666667 0  0.7333333333333333 0.4666666666666667 0  0.8 0.4666666666666667 0  0.8666666666666667 0.4666666666666667 0  0.9333333333333333 0.4666666666666667 0  1 0.4666666666666667 0  1.066666666666667 0.4666666666666667 0  1.133333333333333 0.4666666666666667 0  1.2 0.4666666666666667 0  1.266666666666667 0.4666666666666667 0  1.333333333333333 0.4666666666666667 0  1.4 0.4666666666666667 0  1.466666666666667 0.4666666666666667 0  1.533333333333333 0.4666666666666667 0  1.6 0.4666666666666667 0  1.666666666666667 0.4666666666666667 0  1.733333333333333 0.4666666666666667 0  1.8 0.4666666666666667 0  1.866666666666667 0.4666666666666667 0  1.933333333333333 0.4666666666666667 0  2 0.4666666666666667 0  0 0.5333333333333333 0  0.06666666666666667 0.5333333333333333 0  0.1333333333333333 0.5333333333333333 0  0.2 0.5333333333333333 0  0.2666666666666667 0.5333333333333333 0  0.3333333333333333 0.5333333333333333 0  0.4 0.5333333333333333 0  0.4666666666666667 0.5333333333333333 0  0.5333333333333333 0.5333333333333333 0  0.6 0.5333333333333333 0  0.6666666666666666 0.5333333333333333 0  0.7333333333333333 0.5333333333333333 0  0.8 0.5333333333333333 0  0.8666666666666667 0.5333333333333333 0  0.9333333333333333 0.5333333333333333 0  1 0.5333333333333333 0  1.066666666666667 0.5333333333333333 0  1.133333333333333 0.5333333333333333 0  1.2 0.5333333333333333 0  1.266666666666667 0.5333333333333333 0  1.333333333333333 0.5333333333333333 0  1.4 0.5333333333333333 0  1.466666666666667 0.5333333333333333 0  1.533333333333333 0.5333333333333333 0  1.6 0.5333333333333333 0  1.666666666666667 0.5333333333333333 0  1.733333333333333 0.5333333333333333 0  1.8 0.5333333333333333 0  1.866666666666667 0.5333333333333333 0  1.933333333333333 0.5333333333333333 0  2 0.5333333333333333 0  0 0.6 0  0.06666666666666667 0.6 0  0.1333333333333333 0.6 0  0.2 0.6 0  0.2666666666666667 0.6 0  0.3333333333333333 0.6 0  0.4 0.6 0  0.4666666666666667 0.6 0  0.5333333333333333 0.6 0  0.6 0.6 0  0.6666666666666666 0.6 0  0.7333333333333333 0.6 0  0.8 0.6 0  0.8666666666666667 0.6 0  0.9333333333333333 0.6 0  1 0.6 0  1.066666666666667 0.6 0  1.133333333333333 0.6 0  1.2 0.6 0  1.266666666666667 0.6 0  1.333333333333333 0.6 0  1.4 0.6 0  1.466666666666667 0.6 0  1.533333333333333 0.6 0  1.6 0.6 0  1.666666666666667 0.6 0  1.733333333333333 0.6 0  1.8 0.6 0  1.866666666666667 0.6 0  1.933333333333333 0.6 0  2 0.6 0  0 0.6666666666666666 0  0.06666666666666667 0.6666666666666666 0  0.1333333333333333 0.6666666666666666 0  0.2 0.6666666666666666 0  0.2666666666666667 0.6666666666666666 0  0.3333333333333333 0.6666666666666666 0  0.4 0.6666666666666666 0  0.4666666666666667 0.6666666666666666 0  0.5333333333333333 0.6666666666666666 0  0.6 0.6666666666666666 0  0.6666666666666666 0.6666666666666666 0  0.7333333333333333 0.6666666666666666 0  0.8 0.6666666666666666 0  0.8666666666666667 0.6666666666666666 0  0.9333333333333333 0.6666666666666666 0  1 0.6666666666666666 0  1.066666666666667 0.6666666666666666 0  1.133333333333333 0.6666666666666666 0  1.2 0.6666666666666666 0  1.266666666666667 0.6666666666666666 0  1.333333333333333 0.6666666666666666 0  1.4 0.6666666
[...]
<PointData  Scalars="f_18-0"> 
<DataArray  type="Float64"  Name="f_18-0"  format="ascii">1.0374117126272234e-06  -1.2797737127601671e-06  -3.8171866165035071e-06  -2.9143513991191771e-06  -9.0662277032672159e-08  7.7253221638730940e-07  2.3015546467246878e-07  -3.5808503638486067e-08  -1.1238359960793528e-08  3.3784883669695973e-09  7.6444799140392410e-11  -1.9943452501947454e-10  3.1373632005399183e-11  8.6805534699388823e-12  -5.9315793390574850e-12  1.6777997277995910e-12  -2.6805930028927988e-13  6.6698982986736141e-15  1.0429794450043916e-14  -3.6301121452610409e-15  6.8259964182031010e-16  -5.6280484304711074e-17  -1.1352218550694568e-17  5.7684388053248398e-18  -1.2792606621516995e-18  1.5250126888775296e-19  5.0638300678280639e-21  -7.4129952327028791e-21  1.9911894796769589e-21  -3.5663727909958544e-22  3.0004623664449394e-23  -2.1741772709076998e-06  -3.4789867340941659e-07  5.5754734950219275e-06  7.9685993002973160e-06  2.7250824166139169e-06  -1.3796948080183721e-06  -9.9935529208513204e-07  -5.0926773980957956e-08  5.3001171177203201e-08  -2.1741497947908325e-09  -2.3078412208444408e-09  4.9340687031785198e-10  5.3275934306776682e-11  -5.2909642758361352e-11  1.4338136685334320e-11  -1.7474154632816407e-12  -1.8465939269155960e-13  1.4676226293940511e-13  -3.8055250936749790e-14  5.2855110810324288e-15  3.6021336997071095e-17  -2.3789683215865822e-16  7.0822668389691761e-17  -1.1547406742991022e-17  5.8260333214037040e-19  2.8875812389171296e-19  -1.0833250543740917e-19  2.0551857573343087e-20  -1.8489858994026684e-21  -2.3746333276692137e-22  2.9662710559743650e-22  4.2731769171318722e-07  6.1363668705223073e-06  -7.2052746124410383e-06  -2.8704473115602297e-05  -2.0368732722929506e-05  1.3495528444598349e-06  6.1787191257366413e-06  1.8732751643626085e-06  -4.5090693118173237e-09  -2.2485427536642015e-08  1.2722955554085161e-08  2.6050197081506895e-10  -8.3283183529906820e-10  2.4272986885873450e-10  -3.3015547320849634e-11  -1.1514019007770956e-12  1.7491352759288045e-12  -4.5245784508972734e-13  5.6441782180986709e-14  2.6313896299867057e-15  -3.1109154349500479e-15  7.9801904181440707e-16  -1.0606905661583552e-16  -1.1741382283780448e-18  4.5430390544758381e-18  -1.2653691081554691e-18  1.8741076768382754e-19  -4.9224062140022391e-21  -5.7678922623402713e-21  1.9640748316715685e-21  -6.2174230325740899e-22  1.2411496981854755e-05  -1.2530391618442436e-05  -1.4873085492621908e-05  7.6832216748723190e-05  1.2387337790204815e-04  8.1563717858484100e-05  6.1583327193652715e-05  4.1364079305745245e-05  1.3255906717717275e-05  1.8556390601327736e-06  5.4737992599599457e-08  -1.4016300686783079e-08  4.5157109266734730e-09  -5.5223944846848624e-10  -3.8172523828896397e-11  3.3380223892670199e-11  -7.8395534874217959e-12  8.9311301019596125e-13  5.0664094511796658e-14  -4.7585445806496549e-14  1.1199381230105800e-14  -1.3028312494255173e-15  -5.9598736299832815e-17  6.5096956859249868e-17  -1.5755113711865636e-17  1.9290641918669576e-18  5.3053598869772691e-20  -8.6511811028174430e-20  2.2138481907102215e-20  -3.2880244778772560e-21  -1.8910669304938459e-23  3.1231610952893384e-06  -2.6403059103189378e-05  9.9617399404320278e-05  -1.6114103842942375e-05  4.8412194512893798e-05  1.4508333320264609e-03  2.5862025687493433e-03  1.7333903883955378e-03  4.7102610042976562e-04  4.9899393132919378e-05  1.9468821739611283e-06  1.3730180975656116e-07  -9.1278822114456167e-09  -1.2254645785298345e-09  6.6662766928700564e-10  -1.2986201976294082e-10  1.0043639930649687e-11  2.0718278834141475e-12  -9.3226719525948004e-13  1.7945171840254642e-13  -1.5481795589044053e-14  -2.1730130148762660e-15  1.1345659015447434e-15  -2.2932252448855775e-16  2.1741192996316267e-17  2.2476351781475131e-18  -1.3755231318354867e-18  2.9146315281751576e-19  -3.0309808357093657e-20  -1.9736777182036785e-21  3.3826704142113805e-21  -2.5716682040828351e-05  2.4369453442469651e-05  6.7750238327809453e-05  2.6471335552583400e-04  7.1357712870067699e-03  2.0599481767992759e-02  2.6902149877327790e-02  1.8245163340312853e-02  5.5510958617409952e-03  6.7463183863693157e-04  3.4696891209960276e-05  4.3489224565137129e-07  -3.6630931975359822e-08  1.4251967562095671e-08  -2.0963698985745083e-09  4.7831002497136577e-11  5.9027130207508066e-11  -1.7023712344219997e-11  2.4488445017470730e-12  -6.0521013067992746e-14  -6.8976963045101309e-14  2.0645505284927059e-14  -3.1660854665858551e-15  1.3859418755650651e-16  7.1788246298851074e-17  -2.4005003581565009e-17  3.9597516910969660e-18  -2.3468857108951215e-19  -7.3105383096662986e-20  2.9676842777487345e-20  -9.7541279849935753e-21  -3.0133477226786982e-05  7.0507759491170022e-05  7.5726948151467619e-06  4.3734897381485505e-03  2.9094833704934202e-02  6.5531307916184375e-02  8.2774183671129029e-02  6.2490080006563781e-02  2.4743709706204670e-02  3.7858783685630129e-03  1.8560518072167426e-04  1.7210284521172232e-06  3.5689666064340097e-07  -2.8824136224071513e-08  -2.6427901806476457e-09  1.5019205206978139e-09  -2.9017524300046095e-10  2.5513371203179629e-11  2.8768629017759499e-12  -1.5884383435782810e-12  3.2053356204031259e-13  -3.1234565978787778e-14  -2.5515401833467037e-15  1.7429063815259440e-15  -3.7984744361995284e-16  4.2541230366866510e-17  1.4986625458342967e-18  -1.8437361169910026e-18  4.4512036766440692e-19  -6.2627112746488317e-20  -2.5960226196326091e-22  -1.0966440441340422e-05  5.0895424809929550e-05  2.6192843194886202e-04  9.6566535532279160e-03  4.9962540729152252e-02  1.0691594430463928e-01  1.3626324866482867e-01  1.0535699239927809e-01  4.7383330517337022e-02  8.7607804489855477e-03  3.7018551275669180e-04  1.3834817686398270e-05  1.9177024591476077e-07  -1.6269790900441607e-07  3.5062187935969782e-08  -4.0059113288801486e-09  -1.8014098077273460e-11  1.2320953198037896e-10  -3.0615065675171351e-11  3.9824313953110096e-12  -5.3127275122870957e-14  -1.1522229422706491e-13  3.2022597938328121e-14  -4.6484951996550617e-15  1.6645476520366207e-16  1.1148825652148661e-16  -3.5415754383854087e-17  5.7364260524687544e-18  -3.5146736870523978e-19  -1.0303124213106113e-19  7.7207042343345138e-20  4.7590694083991771e-07  1.5088163732430656e-05  4.0525549610756159e-04  9.2690217416404024e-03  4.8430063087763577e-02  1.0584514597592784e-01  1.3624332023378330e-01  1.0634180583533677e-01  4.8785426502999669e-02  9.0644974836792402e-03  2.3696062891868946e-04  4.5076078515317925e-05  -5.2749824045697631e-06  5.0875721307883898e-07  1.0472123492343793e-09  -1.3081249720600084e-08  3.2253902224426117e-09  -4.4505295337405451e-10  1.9438957908573532e-11  8.3238304540040626e-12  -2.7461171050549754e-12  4.5434352224768796e-13  -3.1691394038337129e-14  -6.2897585707654413e-15  2.6948109517514175e-15  -5.0882932169904295e-16  4.6419658122648354e-17  4.5169266437382750e-18  -2.7716608606008788e-18  6.4166146679240209e-19  -1.3169892050487402e-19  7.3639541964024400e-07  1.6802373666621541e-06  2.0072874316391618e-04  3.9923111531256911e-03  2.5377234557323356e-02  6.2929165297215511e-02  8.2655387451438078e-02  6.4810653176472638e-02  2.8136630198422236e-02  4.0399141696977788e-03  1.4152815575110101e-05  6.0304849799036198e-05  -1.3993348388539273e-05  2.7314163643378949e-06  -4.1728026751467628e-07  4.3988084821309559e-08  -8.3543399759065222e-10  -9.5734109464134228e-10  2.7197831391983997e-10  -4.3330979626377857e-11  3.2826340851353762e-12  4.5126482762604182e-13  -2.2035973980386937e-13  4.4102691804113970e-14  -4.6872677576597248e-15  -1.7191937228611309e-16  1.9800442997426544e-16  -4.7313788249139479e-17  6.2047670149364413e-18  -1.2669062325270636e-19  -3.6420544089376431e-19  -8.4414793602790767e-08  4.4119552632012904e-07  3.7218939164188220e-05  7.0712433374886009e-04  5.7098935619374737e-03  1.8419825757737044e-02  2.6765623418062632e-02  2.0159389335703912e-02  6.7867567997970659e-03  2.2510997939194214e-04  7.4048484264738546e-05  1.8000236451497410e-05  -1.1310360995619855e-05  3.8519710976471393e-06  -9.7714395385164993e-07  1.9811223564766659e-07  -3.1889117294689912e-08  3.6691997005097182e-09  -1.3741836092019778e-10  -6.5650969051102790e-11  2.1649049768968069e-11  -3.8752122590968098e-12  3.8622009393117396e-13  1.5504293443501662e-14  -1.6214818602892956e-14  3.8649346760638028e-15  -5.2091795706393324e-16  1.5598809205347323e-17  1.2755369009880150e-17  -4.2399210498719627e-18  1.2871948059020919e-18  -2.0881551311623160e-08  1.6754720239467826e-07  2.0199523046186918e-06  5.2131920934039693e-05  4.8269508642347265e-04  1.7459568470883674e-03  2.5537003642277182e-03  1.3973859196869014e-03  4.0333922064173964e-05  -6.4860959081085968e-06  9.3272037878810031e-05  -2.4851337367999832e-05  2.1683168618387885e-06  1.2449663824485905e-06  -7.6278381097024359e-07  2.6222788285855051e-07  -6.8183116515212760e-08  1.4293003055664329e-08  -2.4048824083795079e-09  2.9753291253834985e-10  -1.5776565748926745e-11  -4.2672750855743716e-12  1.6540908799231041e-12  -3.2681546526006479e-13  3.8824758379246231e-14  -4.3588765236903183e-16  -1.1051943466908434e-15  3.1529842657748338e-16  -5.0708408022214474e-17  3.9380110240904625e-18  1.3736101022145686e-18  1.0409536529005306e-08  -1.8467631104193670e-08  6.4433431740835193e-08  1.9062136625215058e-06  1.3527528420089709e-05  4.1689111344885819e-05  6.2184671945200530e-05  8.2895646954978113e-05  1.2203400468978670e-04  7.2065381273953824e-05  -1.5641195489358935e-05  -1.0387167965156563e-05  5.8984264028289988e-06  -1.4882985761314200e-06  1.0242069069244707e-07  8.9536395277388221e-08  -5.2128995222026703e-08  1.8017464726727059e-08  -4.7756669658219433e-09  1.0288066614436646e-09  -1.7959015136640460e-10  2.3577074455670572e-11  -1.5568130009477842e-12  -2.6328724734581825e-13  1.2254622742779715e-13  -2.6410727967374483e-14  3.5627429133708652e-15  -1.5833748900607782e-16  -6.9846462211002939e-17  2.6140196403197549e-17  -8.9260958148574173e-18  -2.0393820862057255e-09  2.0495505503887173e-10  1.2429126799578011e-08  -2.1957175489906379e-08  1.8025123954418857e-09  1.9076993094645547e-06  6.0226901650285634e-06  7.0794599492486809e-07  -2.0561592868302959e-05  -2.7601658029681277e-05  -6.2467006547932225e-06  5.6357617488000481e-06  7.0623565521334030e-08  -8.6988554871465336e-07  3.9419588158740709e-07  -9.2051235374882582e-08  4.6784652718192246e-09  6.4259483465818945e-09  -3.5971239185340823e-09  1.2473849617202524e-09  -3.3560081649132085e-10  7.3904613195732173e-11  -1.3296910962935243e-11  1.8325674047502606e-12  -1.4100596112300342e-13  -1.5299431192145473e-14  8.8634560360818436e-15  -2.0681166448038201e-15  3.0996666422946911e-16  -2.3282345017410733e-17  -7.9701066192725406e-18  1.7556179283512058e-10  6.3891202062747732e-10  -2.0011805292699325e-09  -2.0933256067175686e-09  4.8876143531865642e-08  -5.1998049382935257e-08  -9.2588275308970779e-07  -1.1905453870353148e-06  2.6926401196498257e-06  7.3698258418791526e-06  4.9106093036430018e-06  -5.2157812765603684e-07  -9.8426168867922342e-07  2.8785017462230338e-07  5.3041182772491378e-08  -6.7018413883180132e-08  2.6612319925301438e-08  -5.8299146315286384e-09  1.9439257291507452e-10  4.6126570269726457e-10  -2.5012537336453749e-10  8.6845895043834864e-11  -2.3628170564187733e-11  5.2954268348119570e-12  -9.7682960531753780e-13  1.4016933327235036e-13  -1.2086440042224104e-14  -8.1865554284926076e-16  6.3191677674385652e-16  -1.6977706615463224e-16  5.1036363170700014e-17  1.9228923454096174e-11  -1.5518236566121591e-10  4.3452223950272952e-12  1.7522057397321690e-09  -5.9381792697564389e-09  -1.7399042101135786e-08  1.1880521931695672e-07  3.7426166388191367e-07  -9.0621539366398155e-08  -1.4752338594998096e-06  -1.8566172812701375e-06  -5.3560580781990555e-07  3.4143508968597614e-07  8.3186170624261306e-08  -7.6388659823524835e-08  1.3157812966765658e-08  6.1766334953165367e-09  -4.9884123407338248e-09  1.8090610637449677e-09  -3.7462714751472644e-10  5.7916917742645526e-12  3.3185932382512415e-11  -1.7491000408134803e-11  6.0680239801837637e-12  -1.6644593359238744e-12  3.7834933972614636e-13  -7.1274979817578890e-14  1.0587507506513290e-14  -1.0037280497573276e-15  -3.9234148047680548e-17  8.7866967089909551e-17  -8.8157732862275603e-12  1.4139786245051197e-11  7.8580132298997590e-11  -3.3415039236540517e-10  -4.5836503764550721e-11  5.3962282583551396e-09  -6.8096127076270330e-09  -7.5319861167037466e-08  -7.1908207091356720e-08  2.0938394837982544e-07  5.0269216718945240e-07  3.4540780002531991e-07  -9.0004778073509321e-09  -7.5995946459313069e-08  9.0150243840752672e-09  1.0837566330792204e-08  -5.2255111061925789e-09  4.7578635037155520e-10  5.6845406212751684e-10  -3.6477512991653941e-10  1.2342033610702369e-10  -2.4233930848563600e-11  -9.1683947347818514e-14  2.3924450312243369e-12  -1.2275830137533638e-12  4.2483355111997458e-13  -1.1723592149084863e-13  2.6972623718664088e-14  -5.1988736435962924e-15  8.4968477645916594e-16  -1.6022362477043347e-16  1.0773054925053836e-12  2.1425916394824637e-12  -2.0769396187709392e-11  2.0291324117076088e-11  1.9378607561666984e-10  -7.9027132087593473e-10  -1.3554070053256422e-09  1.0624687185753682e-08  2.6439246157785901e-08  -1.2008854075866804e-08  -1.0423942101497527e-07  -1.2704555680472811e-07  -4.2607150053656282e-08  2.0526177187006582e-08  9.5362353250695472e-09  -5.0046687766486147e-09  -3.9330604344468013e-10  9.7319815961014976e-10  -3.3644171135165292e-10  4.9398184421831074e-12  4.7660748112550659e-11  -2.6369474199689489e-11  8.4269976266658947e-12  -1.5699978363575882e-12  -3.9261234871933929e-14  1.7260153654844881e-13  -8.6344682662560378e-14  2.9789665127649877e-14  -8.2963914193285276e-15  2.0540584628446024e-15  -7.4746927758446356e-16  1.1813195562006676e-13  -1.0227410027779059e-12  2.5383095181664526e-12  6.8835355380386923e-12  -4.5925321231762938e-11  3.3691221066073148e-11  5.1399068852911516e-10  -8.0074139449175777e-10  -5.8086339318706271e-09  -4.1627968842114221e-09  1.5782833410973500e-08  3.4635097279164331e-08  2.4428261244301229e-08  8.6297985844687787e-10  -5.5000576847666524e-09  -1.0425438478209379e-10  1.0271987880409877e-09  -2.4903069536927034e-10  -8.9518796068139876e-11  7.6901896366637864e-11  -2.0721047419010421e-11  -1.4753573375216521e-12  3.8024185812809321e-12  -1.8898548338437058e-12  5.7502732698867770e-13  -1.0162398158413754e-13  -4.9348527207367847e-15  1.2452012425239328e-14  -6.1116598668035763e-15  2.2362349071311704e-15  -1.1626876672681995e-15  -7.7673168210948685e-14  1.6795051537201905e-13  9.1689867649138282e-14  -2.5514936863943259e-12  5.1185779913158304e-12  1.5630993201491626e-11  -8.8897128176724780e-11  -8.0418939033659886e-11  8.9894204568588939e-10  1.8196941953607452e-09  -1.1784058275784750e-09  -7.3603512223699231e-09  -8.7827723742394039e-09  -3.2748887753639004e-09  1.2204444325032872e-09  8.5345305433874101e-10  -2.8329629752334572e-10  -1.0837240905303744e-10  7.9079759647710308e-11  -8.1897612892910944e-12  -9.8598994003451594e-12  5.6912070734473011e-12  -1.2212142712291324e-12  -2.2071723235084538e-13  2.9411583941275786e-13  -1.3454413235394802e-13  3.9206308725616102e-14  -6.5702025106697686e-15  -4.9424515429228387e-16  9.6142190366531105e-16  -8.5758276671332140e-16  1.5878486187235456e-14  -1.8268460200203921e-15  -1.1538823953649006e-13  4.3319932597908450e-13  2.4066804327345209e-13  -4.9712043093781510e-12  7.2059545192180554e-12  4.2850588381209820e-11  -8.3034021040146666e-11  -4.3359495156098667e-10  -2.3210478624849117e-10  1.1692228275467740e-09  2.4014591550181849e-09  1.7316084777289407e-09  1.4742187486488028e-10  -3.8580352382826308e-10  -5.3350281450644052e-11  7.9518006616519837e-11  -5.0748087955424969e-12  -1.2825102576628014e-11  5.1943208470293611e-12  1.1601333173862845e-13  -8.9299731057915232e-13  4.0423623389748889e-13  -6.8221260042120615e-14  -2.3033554996124659e-14  2.2279322984825149e-14  -9.5349902159841544e-15  2.6844054496666414e-15  -4.5127971654017357e-16  -8.7920563957890848e-17  -1.0462710396674036e-15  -6.4676376286099079e-15  2.6695099703881680e-14  -2.5376860524401347e-14  -2.3895282806986110e-13  7.6514222530346490e-13  8.5615388918399813e-13  -8.6552366756558184e-12  -3.2122146070546453e-12  7.2739673081112075e-11  1.2331457867583234e-10  -1.0287554598515406e-10  -5.1954893632692782e-10  -6.1071452742999085e-10  -2.4680693123843002e-10  7.1325652350617613e-11  6.9273088100716112e-11  -1.3770148871035625e-11  -1.1986647336990695e-11  4.9556641467558052e-12  7.9213553669848990e-13  -1.1271020526495989e-12  3.0128174667013512e-13  5.5525820598043662e-14  -7.3668210058716808e-14  2.7889166294399122e-14  -3.5271980339500610e-15  -2.1038116324952927e-15  1.6719164698113447e-15  -7.2034086706137354e-16  3.6422995200074982e-16  -3.8694756391746896e-16  1.8625707781543819e-15  -2.7554788029799854e-15  -8.3767243439924071e-15  5.5089284287507007e-14  -3.5141830280567192e-14  -4.4087553969510888e-13  9.5744988723808431e-13  3.2451606061791977e-12  -7.8126207746514192e-12  -3.1664225636925433e-11  -1.2334121267417165e-11  8.5649428932875052e-11  1.6714408161495194e-10  1.2283031700735718e-10  1.5604599893557694e-11  -2.6554119211807071e-11  -6.5705966299273323e-12  5.5611499423462314e-12  5.7443575466405768e-13  -1.1568355306541850e-12  2.1738788025294225e-13  1.2966559161733923e-13  -8.6403459529433084e-14  1.5041003223449197e-14  7.0090792590958400e-15  -5.7539718150035589e-15  1.8818723562961359e-15  -1.5875107003763680e-16  -1.9358762961080484e-16  2.4562165673242156e-16  1.5577048801210101e-16  -2.5620235103502744e-16  -2.6606732343420507e-16  3.0923164198129153e-15  -6.4859879475407079e-15  -1.6187566450277944e-14  8.6551486245467391e-14  1.4682689725601034e-14  -7.6097827735477880e-13  1.5854126047669039e-14  5.6957903192501158e-12  8.2731757559691280e-12  -8.4475224451037711e-12  -3.6658883683908802e-11  -4.2613260661203575e-11  -1.8361090710377926e-11  4.0643520160057777e-12  5.3404269715068829e-12  -5.0056274553077588e-13  -1.0592101074415853e-12  2.4713714150553912e-13  1.4404346464620927e-13  -8.5048849239205800e-14  2.9998764343716762e-15  1.3405190065997140e-14  -6.0792369232521906e-15  5.6019076013390431e-16  6.9137972581795997e-16  -4.3592133752438808e-16  1.3264186725489111e-16  -9.9781583596539497e-18  -2.8909200666715828e-17  -3.3724479821534348e-18  1.7621785994677693e-16  -5.2369795922862428e-16  -1.4793153906207884e-16  5.4501925492067040e-15  -8.3431422503180463e-15  -3.3371564384989671e-14  1.0293717290494971e-13  2.2836190204932748e-13  -6.8696686001627536e-13  -2.2776357069312981e-12  -6.0779155688359063e-13  6.2255919413003483e-12  1.1662247630381825e-11  8.7130369090433524e-12  1.4213519290001250e-12  -1.8042082219551306e-12  -6.3336337075689694e-13  3.6315022091094109e-13  1.0197678704097315e-13  -8.6111826028868205e-14  2.5309137352635432e-16  1.5551223504171980e-14  -5.2060381147278809e-15  -7.2406720253693818e-16  1.1700566811120124e-15  -4.0031509149816411e-16  1.8605880800169993e-18  6.6066933225568504e-17  -6.3737854806656928e-17  1.9847985631485789e-18  1.1273116418350976e-17  -3.8058572478242816e-17  2.9922148217110151e-17  2.5856892288944823e-16  -9.0466786208675892e-16  -6.3219151587544978e-16  8.2476986752891867e-15  -3.8579817796518253e-15  -6.2288512451136231e-14  2.1353834268778964e-14  4.3544844321058074e-13  5.5115188850483250e-13  -6.6863741584638864e-13  -2.5860121153087695e-12  -2.9803333240221178e-12  -1.3536492249160046e-12  2.2317003034487934e-13  3.9906943953313307e-13  -1.9986714273308019e-15  -8.4126437407296794e-14  7.9954108553614538e-15  1.4936815073879329e-14  -4.9387071633631419e-15  -1.3117936867951615e-15  1.3091648934525376e-15  -2.5959396009870511e-16  -1.1524663981908337e-16  9.3598901625784131e-17  -2.6181963930183770e-17  -5.0007948083351733e-18  5.9203985331276108e-19  -3.0765484974709901e-18  3.7933706482532060e-18  1.0604204556520008e-17  -6.3317025807225456e-17  5.8197148725856983e-17  4.4188609262101474e-16  -1.0998159803774229e-15  -2.18