<?xml version="1.0"?>
<VTKFile type="UnstructuredGrid"  version="0.1"  >
<UnstructuredGrid>
<Piece  NumberOfPoints="3280" NumberOfCells="6365">
<Points>
<DataArray  type="Float64"  NumberOfComponents="3"  format="ascii">1.3 0 0  1.298383997584599 0.06479965135890632 0  1.293540007975022 0.1294382005745617 0  1.285480074092667 0.1937549460290268 0  1.274224234203107 0.2575899861592169 0  1.259800472097801 0.3207846169973817 0  1.242244647521983 0.3831817267341755 0  1.221600407021681 0.4446261863233694 0  1.19791907543153 0.5049652351571032 0  1.171259528273145 0.5640488608528256 0  1.141688045381297 0.6217301722077136 0  1.109278146121802 0.6778657643933474 0  1.074110406610793 0.7323160754827087 0  1.036272259389799 0.7849457334231206 0  0.9958577760546716 0.835623892592501 0  0.9529674333787743 0.8842245591021952 0  0.9077078635118947 0.930626904037634 0  0.8601915888759174 0.9747155638580545 0  0.8105367424163537 1.016380927208439 0  0.7588667739052269 1.055519407430613 0  0.7053101430254874 1.092033700096003 0  0.6499999999999999 1.12583302491977 0  0.593073854559112 1.156833351454909 0  0.5346732340697952 1.184957608005175 0  0.4749433316763135 1.210135873237466 0  0.4140326453271898 1.232305550017271 0  0.3520926085859066 1.251411521035016 0  0.2892772141432088 1.267406285836371 0  0.2257426309670096 1.28025007891587 0  0.1616468160417309 1.289910968580224 0  0.09714912166235169 1.296364936335534 0  0.03240989925949495 1.299595936601061 0  -0.03240989925949479 1.299595936601061 0  -0.09714912166235155 1.296364936335534 0  -0.1616468160417307 1.289910968580224 0  -0.2257426309670094 1.28025007891587 0  -0.2892772141432087 1.267406285836371 0  -0.3520926085859066 1.251411521035016 0  -0.4140326453271896 1.232305550017271 0  -0.4749433316763134 1.210135873237466 0  -0.5346732340697948 1.184957608005175 0  -0.5930738545591113 1.156833351454909 0  -0.6500000000000001 1.12583302491977 0  -0.7053101430254871 1.092033700096003 0  -0.7588667739052265 1.055519407430614 0  -0.8105367424163534 1.016380927208439 0  -0.860191588875917 0.9747155638580548 0  -0.9077078635118946 0.9306269040376342 0  -0.9529674333787743 0.8842245591021952 0  -0.9958577760546713 0.8356238925925014 0  -1.036272259389799 0.7849457334231206 0  -1.074110406610793 0.7323160754827088 0  -1.109278146121802 0.6778657643933476 0  -1.141688045381297 0.6217301722077135 0  -1.171259528273145 0.5640488608528257 0  -1.19791907543153 0.504965235157103 0  -1.221600407021681 0.4446261863233695 0  -1.242244647521983 0.383181726734176 0  -1.259800472097801 0.320784616997382 0  -1.274224234203107 0.2575899861592169 0  -1.285480074092667 0.1937549460290271 0  -1.293540007975022 0.1294382005745618 0  -1.298383997584599 0.06479965135890672 0  -1.3 1.592040838891559e-16 0  -1.298383997584599 -0.0647996513589064 0  -1.293540007975022 -0.1294382005745614 0  -1.285480074092667 -0.1937549460290268 0  -1.274224234203107 -0.2575899861592166 0  -1.259800472097801 -0.3207846169973817 0  -1.242244647521983 -0.3831817267341751 0  -1.221600407021681 -0.4446261863233693 0  -1.19791907543153 -0.5049652351571033 0  -1.171259528273145 -0.5640488608528255 0  -1.141688045381297 -0.6217301722077133 0  -1.109278146121802 -0.6778657643933473 0  -1.074110406610793 -0.7323160754827087 0  -1.036272259389799 -0.7849457334231204 0  -0.9958577760546716 -0.835623892592501 0  -0.9529674333787744 -0.884224559102195 0  -0.9077078635118949 -0.930626904037634 0  -0.8601915888759176 -0.974715563858054 0  -0.8105367424163539 -1.016380927208439 0  -0.7588667739052278 -1.055519407430613 0  -0.705310143025487 -1.092033700096003 0  -0.6499999999999996 -1.125833024919771 0  -0.5930738545591122 -1.156833351454909 0  -0.5346732340697951 -1.184957608005175 0  -0.4749433316763144 -1.210135873237465 0  -0.4140326453271904 -1.232305550017271 0  -0.352092608585906 -1.251411521035016 0  -0.2892772141432089 -1.267406285836371 0  -0.2257426309670094 -1.28025007891587 0  -0.1616468160417316 -1.289910968580223 0  -0.09714912166235215 -1.296364936335534 0  -0.0324098992594951 -1.299595936601061 0  0.03240989925949463 -1.299595936601061 0  0.09714912166235168 -1.296364936335534 0  0.16164681604173 -1.289910968580224 0  0.225742630967009 -1.280250078915871 0  0.2892772141432084 -1.267406285836371 0  0.3520926085859066 -1.251411521035016 0  0.4140326453271901 -1.232305550017271 0  0.474943331676313 -1.210135873237466 0  0.5346732340697947 -1.184957608005175 0  0.5930738545591118 -1.156833351454909 0  0.65 -1.12583302491977 0  0.7053101430254876 -1.092033700096003 0  0.7588667739052264 -1.055519407430614 0  0.8105367424163534 -1.016380927208439 0  0.8601915888759164 -0.9747155638580554 0  0.9077078635118949 -0.930626904037634 0  0.9529674333787747 -0.8842245591021949 0  0.9958577760546713 -0.8356238925925015 0  1.036272259389799 -0.7849457334231208 0  1.074110406610793 -0.7323160754827096 0  1.109278146121803 -0.6778657643933471 0  1.141688045381297 -0.6217301722077142 0  1.171259528273145 -0.5640488608528258 0  1.19791907543153 -0.5049652351571032 0  1.221600407021681 -0.4446261863233702 0  1.242244647521983 -0.3831817267341761 0  1.259800472097801 -0.3207846169973822 0  1.274224234203107 -0.257589986159217 0  1.285480074092667 -0.1937549460290267 0  1.293540007975022 -0.1294382005745625 0  1.298383997584599 -0.06479965135890688 0  0 -4.440892098500626e-16 0  0.160442176815071 0.6300960812521692 0  -0.4875093085969083 0.4302295175157829 0  0.6259003015969383 0.1761010396657574 0  -0.6163443459250439 -0.2070806870684201 0  0.4422497387300297 -0.4766318624512214 0  -0.1651298332029079 -0.648505666430226 0  0.8189438853637583 -0.2304150825179555 0  -0.2507603029198102 0.8129449354698079 0  0.6003674359718529 0.6155263281093956 0  -0.8427851813268934 0.1703727000051571 0  0.215282490560823 -0.8454675469838078 0  -0.594668169318339 -0.636246859894527 0  0.4895549038668353 -0.1377393928784784 0  -0.1123007616138176 0.3640701272902429 0  0.3889105130982073 0.8796360931829326 0  0.9548592553513221 0.08322114140573895 0  -0.8168496007475363 0.5077083546555385 0  -0.950257773369706 -0.1675560840730286 0  0.8696668783366902 0.4107195689914958 0  0.7713782630389786 -0.5689090711334497 0  0.08305601673296586 -0.3664251048113942 0  -0.2585510243062996 -0.2512301877467894 0  -0.3529632392496374 0.09624179385803094 0  -0.0893831643848421 -0.9680537574208501 0  0.3724237288119169 0.3818271887537146 0  -0.5848782931206066 0.7550468513685757 0  0.05742292153070552 0.95805288314466 0  0.5328369788813078 -0.7866270401801241 0  -0.3863868417150669 -0.8697047706862215 0  -0.863994608901242 -0.4713453365447924 0  0.289518876328037 0.09015077882666846 0  -0.3755032843093914 -0.4883540147674654 0  0.2043520117982718 -0.1463059295351929 0  0.2113350623439121 -0.5887871663889215 0  -0.5884672073608421 0.1954642699941742 0  0.1330175774523247 0.2922545020870543 0  -0.2710314325111518 0.560900159862426 0  -0.1708221820699401 1.042987609564629 0  0.9677041860701516 -0.4239080627809081 0  1.046773745021299 -0.1428781444533802 0  -0.4477853718431076 0.9569239706662713 0  0.8382741141851657 0.6488950347280424 0  -1.0093079002606 0.3391094196473194 0  -1.061775118878549 0.07956904518998247 0  0.6277945929389066 0.8541909655834014 0  -0.6197110892245364 -0.8682279745681279 0  0.7497696886701173 -0.01417038327143452 0  0.6471605753494983 -0.3788648512647379 0  -0.03267675766097933 0.7495915343004699 0  -0.8070470578549416 -0.7122232543882646 0  0.3681252617332567 -1.011415844142946 0  0.1246003056420572 -1.059982073474685 0  0.5930521940869109 0.3946468354720162 0  -0.7658798832005504 -0.04014006380097423 0  0.379738970696859 0.6027066813910938 0  -0.6497999903053765 -0.4239009460104715 0  0.01021307940384231 -0.7756934974999692 0  -0.1731284645783486 -0.4407646272440706 0  0.3514344643984019 -0.2912073414540673 0  -0.5626704917388248 -0.008559965884285342 0  0.7426461125357513 -0.8003821568703164 0  1.048418893983055 0.2949793389850982 0  -0.8017763743696761 0.7260203216310023 0  0.2687498458388911 1.055447065489461 0  -0.07422929820541552 0.5571903144642262 0  -0.4278682628445684 -0.1515225477734551 0  -1.035163094644204 -0.3558077189112244 0  -0.675042353564301 0.3717853169388543 0  -0.2707629265045749 -1.063352930791657 0  -0.3550750841050729 -0.6797677088207537 0  0.01300914656262454 -0.5550172834497266 0  -0.1476644782524558 0.1538067030322139 0  -0.3161221953543438 0.3051777363171427 0  0.3888461300512644 -0.6604708985566994 0  0.01986294941707991 -0.188123278977089 0  -0.4849750019204089 -0.3383423994594372 0  -0.4029779901229558 0.6983497439212034 0  -0.2031294531226654 -0.04960905233044624 0  -0.7915823344404023 -0.2910324943276809 0  0.5486952035628564 -0.9709868159522279 0  -0.6259074447139622 0.9303972157525489 0  1.122091670152867 0.01947260668074612 0  0.9473168878719344 -0.6017138959588901 0  -0.4884191858253131 -1.014212889862702 0  -0.01128344671203905 1.122567163536546 0  0.4392936536546092 0.205199903042713 0  0.4531968793985296 0.03208476523803298 0  -1.121008740225875 -0.1404806207764207 0  0.5220353646408635 0.9953705729268801 0  -0.9957465902388336 0.5177755085004655 0  0.9820464910847201 0.546688383572117 0  0.1330683928817295 0.8016561412162988 0  0.6604839745148062 -0.1619182234934192 0  0.7966280961183048 0.1517911754460319 0  0.6006062280298201 -0.5449119592375964 0  -0.6296783289469132 0.5646147613672701 0  0.08264427995827572 0.4663774986679379 0  0.4957351607651657 0.7484588615238452 0  0.7256575166861075 0.5008160014083303 0  -0.05654956453411328 -1.133077850292752 0  -0.8407473360161591 0.34084145555384 0  -0.9524778973353076 -0.6151754492000777 0  0.2433926587916736 -0.42211072167576 0  -0.1513704182915556 -0.813995750060624 0  0.255087098881607 0.4962741074959431 0  -0.1093434883820172 0.8927139313586433 0  0.9019585936277016 -0.070016483527614 0  0.8061421028804202 -0.4105685357500857 0  0.379843698696996 -0.847262587613488 0  0.02021690826116848 0.1671966742729145 0  -0.9112636177433847 0.02605186016090791 0  -0.1
[...]
<PointData  Scalars="f_29-0"> 
<DataArray  type="Float64"  Name="f_29-0"  format="ascii">3.0815284191856661e-21  -1.0118531760733200e-21  -2.6839487133113015e-21  -1.3700234448852321e-21  3.2365882992052657e-23  1.8409672030043240e-22  7.3610334985309343e-22  -2.2496502158137129e-21  -1.6391917938653766e-21  -2.8795142370949325e-22  9.8580114415558035e-22  -4.7036713935811995e-22  -2.6132256854069781e-22  -3.4850274781874735e-22  -4.4603785056691934e-22  4.2542385228925950e-22  -3.4330200040954279e-22  4.6429543542542801e-22  -1.2739014900876456e-22  -2.4397034233451003e-23  -3.1203108714437101e-23  -1.9324683465548469e-22  -9.2915616349055475e-23  -5.8181161567589319e-22  -2.5300599410430884e-22  3.0900008396266529e-22  1.9577119719215541e-22  1.7539319591203739e-22  7.3155504954840362e-23  1.3892040480240524e-22  4.6967849073659113e-23  -5.5682581962536115e-22  6.3515299307505121e-22  -8.2470726724991838e-22  -5.3658686969127996e-22  1.7339809753506653e-22  -1.0438745018534261e-21  -1.2435615282917076e-22  -2.1240820686613118e-21  -9.7213178001614959e-22  3.1971741084366967e-22  -7.6977765747044720e-23  3.3972028972794258e-22  -3.8299700878626780e-22  7.9701098871139561e-21  1.0104189931615332e-20  2.9445715920262464e-21  8.7339264010970613e-22  -1.0215924803030016e-21  -2.8074162340251060e-21  -5.2744460941561927e-22  -2.8259030163342779e-22  -1.1693962729667050e-22  -2.4714150978094244e-21  -2.9052255403875491e-21  -4.7902205017582686e-22  3.5838316608826679e-22  2.0082764366469410e-21  1.4360776560307467e-21  2.8250701330059780e-22  -2.4004945445554335e-23  -7.7893336085817803e-22  1.6754065343802884e-23  1.9525942113648038e-21  -3.2927918449824143e-22  1.3907679284212145e-21  2.9821767552045250e-21  1.2960673000062234e-20  -2.2490794435238955e-21  2.6967230595656536e-21  6.1100569862998046e-22  5.2509526094892925e-22  6.4612463826267687e-22  -1.8407360086767373e-21  2.7612245654700840e-21  -1.0529290698052799e-21  -1.3348297775278450e-21  -4.0799875977819402e-22  6.4510476152592602e-22  7.0823872430638491e-24  3.4886559038792771e-22  5.1068166752982460e-22  1.6899145852309283e-21  -8.6540912867769132e-22  8.8531448267485654e-24  -1.0178757270829525e-21  2.1024496997393531e-21  -6.0648091908539748e-22  -7.0751772572643876e-22  -7.2872029806829283e-22  2.8181194861494097e-22  -1.3433496854463771e-22  -1.4772232604478843e-22  -5.7312188461145903e-22  -8.3974810340599056e-22  -2.1461205119452278e-23  -1.0543905695308534e-21  -2.5482124013881273e-21  3.6423438556727136e-21  -1.6409272470431969e-22  -4.4816536434974697e-22  5.9399450914195924e-22  1.3113226971384779e-23  -4.9831168364021697e-23  4.4703040476134203e-22  -5.6996146450085408e-22  1.3200695196540607e-22  -1.6075921263628870e-22  -2.2522771562194368e-22  -1.8832940644252445e-22  -2.7938994052744336e-22  1.2557924364063752e-22  3.3798802839198025e-21  -3.7798769580997619e-21  -1.0585931277910201e-20  3.8479059297528454e-21  -1.1700114419544045e-21  -1.7931050998857545e-22  3.3071363849928610e-21  2.4376590895281555e-21  -5.5799601314538051e-21  -2.9893813406631909e-22  -5.9956149370611739e-22  -3.5070785842174166e-21  -8.8949104509158067e-22  -3.5920583454331899e-21  5.7893753272693294e-01  1.2917400725366417e-12  4.8344110393665101e-11  6.3909314493965631e-11  -8.1973475481943085e-12  9.3588368151358473e-12  -1.1215523652479206e-12  3.7678756239467674e-15  1.8660012950446787e-14  1.0223022227485230e-15  6.3053432463848410e-16  -2.1419453105683771e-15  -1.9645423796198872e-16  1.0279141712771075e-09  8.8012285485263379e-07  2.9489759796552279e-17  1.2909556720632348e-16  4.7682416239102850e-17  3.9114610611288682e-16  9.1081148739739822e-16  5.1114617886067104e-17  7.6278215006155851e-07  4.2008805900885429e-06  2.6648250691878555e-06  -8.1879824379781883e-17  7.9860362761192439e-13  2.1245057282701605e-16  -7.9410037592528058e-17  3.6082685586049274e-17  4.8338265995436883e-16  -5.8341871253093627e-17  1.5533396379560239e-04  -1.1262631570130505e-11  2.7195207182826911e-03  -1.5424616271749316e-11  -8.4093044931918936e-11  5.3291864727941530e-05  5.5940780676490019e-11  3.9884085495002114e-18  -3.7207628206319702e-17  -3.3380373821048248e-18  1.9459310230945013e-20  -2.3067587531869184e-18  3.0275082323304356e-18  -6.8509111379917212e-19  -4.0846473401364940e-19  -9.4162327770567329e-19  4.2895557013791626e-13  2.7968749196530796e-13  -3.5411817506456761e-13  2.0217826075050197e-18  -2.2334627039979630e-19  -3.2548176420077478e-18  -1.7310681207514480e-12  -1.2114279148613134e-13  3.8361028959306546e-13  1.0431123542068332e-15  2.9065574420550895e-13  2.5225042820558280e-08  6.0495536419114429e-08  1.0005280203444137e-11  6.1954210795852849e-19  -3.2971567005485398e-20  -2.4915475436124707e-18  -1.2046909598292903e-19  -2.8768667722396559e-10  -3.9991714060810858e-08  -2.8730781221447724e-20  8.4511013452964738e-14  4.0927310773511415e-19  -5.1657406441921543e-14  -3.3199995621451874e-10  1.5161088189169610e-02  -1.1163125433238847e-07  -8.6278921346685458e-14  4.0275122867641164e-02  4.8161076402501419e-11  -9.0720586836256438e-14  1.8269886941256395e-02  5.3366734542695718e-15  -6.4098710111886599e-20  1.2650630519832832e-19  1.4797382833497491e-18  -2.4127519182274739e-18  8.1115440524789188e-19  2.8573175437311675e-21  -5.7860855468957356e-09  -6.8519922155845674e-08  -2.0129240042490034e-19  4.8905146823716079e-20  -8.9370982673960632e-19  -3.1322845757304166e-20  1.1837029891483189e-15  4.8114857987793073e-12  -2.9264916062372201e-14  3.2107554799161693e-14  -3.2908660266893434e-15  3.3441692894744978e-10  6.2981022435308146e-17  4.0297015513709871e-15  -2.1074538927362552e-20  1.2590568872752803e-15  -1.9027838589498587e-20  6.9557546036994643e-09  2.1484983666967219e-14  -2.3583683771028250e-10  -3.1566244443323848e-16  -5.9172287798843610e-16  -3.3148498872250562e-15  1.0263860335964393e-16  7.7864097374515495e-02  -4.4107163773242913e-16  9.9996148011798370e-05  -1.1448273656770351e-14  -1.3061457234666256e-13  1.5325963844877242e-16  4.6448932182592629e-17  -8.1632576251648321e-19  1.9073207255614470e-10  -2.2807451026399037e-19  -1.2235596251421851e-15  2.6371113778730719e-05  2.7165807294807798e-12  1.4399598635218627e-06  1.0785393331081099e-01  -1.3246751837127036e-10  3.8607180537417130e-13  1.4405801115927044e-13  -1.0299282069744843e-19  8.9302988049928842e-09  1.1815208431419201e-16  -3.2232532822353800e-16  -2.0784434247599814e-19  -9.0615411572417640e-17  -6.7756465400650465e-19  -2.8999242361756887e-18  -1.4828718920891501e-18  4.0125190188234287e-17  2.9710828998320673e-17  -2.0031638945126629e-13  -1.4475528092604304e-12  1.4148900048553405e-02  6.8703912320402060e-06  -6.9253139518278412e-20  -4.6935693357664962e-18  2.3596616199667254e-16  -1.2041858082009753e-12  -3.9656949732944846e-20  4.8148493106634624e-18  -4.7186502827411155e-19  -7.2666562718083371e-20  9.4993555693984726e-22  -6.1211240188454703e-17  1.3228883361998868e-07  3.2028455631248197e-02  4.0124260371853483e-11  1.1009944223580049e-09  -1.3172966223504655e-16  5.5635824711752653e-14  -8.4737793464870364e-18  9.6340163244529348e-19  9.8198255500621157e-09  1.7970914655955383e-09  1.4776406326404717e-08  3.3425406153100948e-19  -3.5914482187225580e-15  -5.6300395429047101e-13  -1.6273945126804895e-09  2.3211251596567248e-04  -1.0222502157067610e-11  9.5494110799076096e-14  -1.0542314875224649e-10  -7.1907332900259580e-13  -2.6869453881658690e-17  -8.0627310929554444e-20  -1.5491970037664814e-19  -3.5105119455781822e-20  1.3636650737315210e-20  2.2173439776737697e-09  -1.6178648993515863e-17  -2.6054208391164774e-19  -1.5804202547797244e-19  -4.0744644559227293e-20  -2.4410662952696680e-20  3.3717259339796765e-05  -9.0920609917263661e-11  -6.3386936360239493e-18  -2.1900171549785275e-10  -1.7393783860936131e-14  2.0705719703765610e-18  -1.5763392725581193e-17  6.4218611096040735e-15  8.5902196944817896e-12  6.6169094635775602e-20  4.5193731191441976e-20  5.7605904195097064e-17  -3.5279839595033981e-20  3.0135255069487332e-20  -2.5118467878328142e-20  -3.0703796689003885e-17  1.0647799947195032e-16  1.7044275642351727e-21  2.6123646232147846e-01  2.8851532548669805e-16  -7.9477157822373040e-18  -3.7085124403488991e-11  1.4594588776238703e-07  -4.5788871251828939e-18  7.9274314802517758e-20  2.8167093641495295e-18  -3.4281778281106078e-21  2.3753158060242310e-13  2.8393136640934252e-17  9.0355307754215441e-17  -1.3799578719903160e-20  3.6002178791901231e-18  -1.9742598969684841e-09  4.1607765772982827e-20  -5.6765600864876307e-21  -2.1976676745587422e-20  3.2374343750471817e-21  -5.5040195836707392e-22  1.7939596690548962e-13  -2.4728387566397401e-15  9.4759258695287975e-05  5.2807152281407017e-03  2.5268712927343107e-01  -5.0400903530258454e-14  -5.2845271066980835e-15  -7.3700657042216765e-12  -2.8719011715353417e-12  4.5930668089341046e-15  -3.2313953510028399e-14  3.0805001547867683e-05  1.7173353511246876e-05  -2.2853381171645614e-20  -5.4116050540646620e-21  2.9777577257109210e-20  1.1863352458361031e-20  -1.9057301945357295e-09  -5.2289061350981326e-15  -2.8996138319290187e-14  -7.1756192230244119e-14  -2.4662344149889924e-20  -7.0673517209521980e-22  8.0189518280492073e-16  -4.3522590821054608e-11  -5.1403422778236320e-15  3.2697834319827585e-11  -2.7329905251453234e-13  -9.1311462104132951e-21  -1.1057103672847519e-11  -2.7819055553574739e-20  -1.5550988979539094e-19  -6.2103336461049849e-19  1.0197071453985800e-07  2.4540079279368413e-14  -4.3143711194497353e-15  1.3669391366872134e-13  1.0921240733544656e-17  1.8159312289545228e-17  -1.8561330910536509e-20  -2.3419069659038898e-16  -7.9468991279165307e-10  -6.1603221063298106e-09  6.8278144218205919e-20  -3.4247391516547635e-20  4.7593333045681637e-13  2.2891435395048148e-15  2.6894766255235281e-21  7.6865490205833229e-12  -1.7796551533144578e-15  -2.2350772215879225e-21  -1.6197252349494989e-09  3.0312445783836467e-01  7.3494896630645658e-10  -4.2867442289342893e-19  -2.1761775485210241e-20  -2.1093471601199638e-14  -6.1424601721179430e-16  8.9327692652684837e-18  -2.1207138975373659e-16  2.5324789365244763e-09  6.9608636215203497e-07  -2.3827858053220695e-20  1.6934156525643420e-03  -3.2200084227958224e-09  -2.9887421993931157e-14  -1.1349849776296490e-09  8.2592991143818126e-06  1.1293842714141471e-08  7.4874228719101668e-04  2.2017131006136325e-20  -5.4372480054081474e-20  -4.5702464814875078e-14  8.6958243051371537e-22  1.5926916496313084e-18  2.2616591320086037e-20  -9.2564461759837682e-16  -5.6386180710545000e-15  4.3157141794785672e-04  1.2418173956930673e-16  -9.6749432403307138e-16  -6.0337076663532923e-17  -8.4491865059677963e-21  -4.3765937513053776e-12  1.1137485774362671e-14  2.4792391123958929e-12  7.9060439870385986e-11  -2.1291740925832067e-11  2.1261730201303196e-13  -1.3276162187535002e-11  -4.9444267938152807e-21  1.3763186697274490e-15  -3.7327695033259775e-12  3.3968520894184678e-01  1.8462115722217300e-19  -3.4778467983590231e-15  8.4232025605807908e-21  -5.1970646133476247e-09  1.3395588380403265e-19  -2.1721160137997153e-16  -3.0661647712807058e-14  -6.4383154786827663e-14  2.7667116637751766e-12  -1.0765702438347303e-12  -6.7146086597935266e-15  -5.3226269886526889e-13  2.2984440121904409e-01  2.0155989412638187e-15  2.2500013844550952e-12  -1.4625026118882089e-15  -7.7523255463029325e-21  6.3403415090138117e-21  -1.1913603257387100e-08  -4.1247731055207301e-09  2.4742010273524980e-03  7.9717755985408848e-20  1.0074609136128909e-16  -3.8457868713916569e-14  5.3262781964227083e-17  -5.8979480969133384e-11  3.9465526668985982e-19  2.4867802096205853e-12  8.4639352674352873e-11  -1.8606011425870641e-08  2.3234655794875954e-06  -3.5142083829474036e-17  -5.2792967649502713e-18  -3.2897769999779543e-18  -6.3184118125356422e-09  -3.6213356765918557e-10  -2.1709135424409283e-21  -1.1779307494337772e-20  2.5208081038814363e-03  -1.0524219074723572e-19  2.8394219300408489e-20  -1.9420240050208987e-17  -2.6458360917855722e-20  1.4896323766762414e-10  -2.9606220451405817e-15  2.8079717583212949e-21  2.2729631512929765e-17  8.8118747487873539e-08  -8.4266875076071051e-18  1.9609436868407345e-19  -1.9816801532404042e-17  -2.8569499740866319e-18  -1.7433846762012300e-18  5.6441164035884602e-24  2.4981664729360095e-19  6.3536403431313606e-18  5.8679444821965434e-18  3.0007314315341430e-20  5.9414529258272881e-18  -5.6589384764117781e-17  5.6021669612212179e-20  -3.3569603855975834e-16  2.0793575579630075e-17  -1.7949535579650113e-19  2.3831584994459889e-02  -2.7263427614675489e-07  -5.6480546423467597e-16  -6.7287141006567536e-13  2.7265339177117513e-17  -1.2299290118458594e-13  1.2100140652189510e-13  -4.6462525522937175e-16  1.1070961377583052e-09  1.7404895919597351e-15  1.6288684699648364e-17  -4.4212064010504703e-12  5.6957483365042091e-11  2.2795375834028399e-12  -1.3526266027073932e-15  -3.8330508434153533e-13  2.0702432839394501e-12  3.4675646645925462e-13  4.5767040116316577e-10  4.8194592282137450e-04  -8.8582741401684150e-15  -4.0803382432088594e-12  3.9019200305129442e-10  -9.9355504104638740e-19  -3.7446648796773834e-17  -3.6532686370996704e-11  -1.8677868759954560e-18  -2.0535708399358783e-18  5.9299477950598044e-17  -1.2073153878618857e-15  -6.1930225615752058e-09  -9.3616239571556683e-16  -1.3564466979816170e-18  -2.6458017231235948e-20  -5.5336013838403415e-18  -6.9903523622704406e-11  3.7464034758733853e-07  4.3539804469301900e-10  8.5054392871232818e-19  -1.0768569876517646e-17  -3.4055487918729734e-16  -7.7449616278229881e-22  6.9440013208990691e-19  1.0892590175222216e-18  -1.9824306865236490e-20  7.4744894487456436e-11  3.8830333454156580e-21  -2.4004022998051847e-18  3.1751064013546939e-03  9.2955171514989786e-22  5.4249439323347593e-19  -1.5243394538265183e-22  -6.9683576341071567e-21  -3.8844833810992773e-14  1.0610002508032415e-13  5.9196910337513342e-12  -4.0883293647893506e-13  -1.0234361943759391e-14  -3.4587717537679973e-20  -8.3796163239457943e-11  1.8507658925314572e-07  7.9910247043895471e-05  4.3603721344264136e-13  -4.8585129549919091e-18  6.0690102870311133e-14  -1.4545588770902720e-22  1.1099448075446051e-15  5.4367133387246328e-10  -3.0527127728157922e-15  -1.1120068975702393e-15  -1.2782024060197540e-11  1.1196786646491110e-09  -5.3583048585167475e-14  1.8050392846611146e-04  3.9238565532707015e-04  2.4730074275917901e-20  -1.2735826603835062e-19  -2.5991519200980214e-17  7.0768364641626107e-03  6.4888292920603130e-07  4.0087027665846714e-16  6.2806278492432355e-15  2.1965532409265207e-15  -3.5670197304834304e-14  1.0289125257074777e-11  -4.7190787782500399e-16  -3.5989091709189279e-12  -1.5142518762958841e-20  4.2189874855248422e-01  8.4970026942993443e-16  2.2414910365980786e-21  1.7578490504659108e-07  -5.1860290509447798e-16  -8.9112932270190508e-18  -1.9160704806600807e-21  -3.3051983937751577e-12  -1.4664620299593413e-18  2.3719763745368530e-14  2.7455173870687269e-17  9.8560105615917517e-09  4.4727790457877266e-12  -7.0739156480433307e-16  4.8088093067692786e-07  -1.8778902216338227e-19  1.6796023661328091e-09  -4.9319653205438884e-21  -7.8447657746205682e-19  4.2598460091723683e-01  1.1614218739960238e-02  1.5629548685066948e-02  -1.5307609340942846e-16  6.2965291870769591e-16  -5.7732314683136850e-16  -2.0832951193787863e-10  6.8338954550003606e-14  -1.3812605802867133e-14  -2.1126274811624498e-18  -1.5579285879739709e-19  1.4677181712710437e-07  -1.1141567374066012e-12  2.5790024912132162e-13  -9.5144201909414921e-12  3.5736463469652462e-16  1.8826477099381947e-13  9.2812886027315295e-14  -5.4065562301232553e-21  -7.7629843557155539e-17  1.6463997698037218e-11  -9.3474739209133671e-18  -8.8096943687409833e-16  -1.2933952219444441e-14  3.0473040316465573e-13  -5.2750811837459796e-21  -3.5533350579867562e-11  -2.3384501338379687e-10  5.5457849608140958e-07  9.3004941667448122e-16  4.2965388653721237e-12  -1.6414643037033079e-16  -2.1631556208363263e-12  -7.6901857820078526e-17  8.1248353240320122e-19  5.0805527374668448e-21  7.1856418331202825e-09  -2.3528495705438430e-20  -1.9867823814608599e-07  -5.6645052320856503e-09  4.2720083312385557e-08  -2.1377703325086943e-10  -2.0359606461296030e-16  3.2383038729535354e-08  -3.3548460695806818e-09  -5.4396368887626563e-21  1.0527810490069290e-09  6.5111042436481346e-10  4.9229359636372803e-19  -3.5924156350285947e-19  6.0047051538654452e-19  -5.9857140929341041e-20  -2.3799714313680857e-20  -2.0216787064710073e-12  2.4768663485320954e-14  -4.8058300609159176e-14  1.4602474938720390e-12  3.2862823436521118e-13  -1.2256144246170976e-14  7.1849816790865927e-20  8.2582538056573116e-20  -1.1627235507117454e-18  -4.5522703785613939e-16  3.8363475717707866e-15  2.9914826132005573e-05  1.0490105355034618e-18  7.9542203412239626e-04  9.5071391723167135e-13  1.5208118716762894e-18  1.1266864249440540e-19  2.4084142746159056e-11  -2.3251418913408023e-13  -3.3482058612924886e-08  4.9342404821566694e-16  -1.8098048018077075e-18  -6.0595520088620125e-20  2.0065310593083725e-19  1.3562682957209166e-06  4.4921389716896768e-18  -2.6554518655197300e-14  -1.6071566611351434e-13  -1.7705882584108813e-16  -4.7467114601018727e-12  -7.1629427720284085e-13  -4.2517294411148097e-19  6.8260541960851017e-18  3.8311313892538609e-17  -1.1865446336280578e-15  -4.0738520379447320e-17  -1.1689626793018354e-17  -2.6512301489991653e-16  1.7453109882110403e-21  5.0585386833911128e-21  -8.6691094175818381e-21  -3.7243130932195628e-20  -8.2781651276218448e-19  -1.4029361114362376e-17  -1.4804453725420146e-15  -3.8302707582750894e-13  1.8526659595653336e-16  3.5557615193369634e-08  4.2736276203467433e-11  2.3082028351631187e-18  -1.3666446439836520e-17  -8.1627618274837271e-19  2.7212956840383457e-19  -4.9003670521926214e-20  1.0477232617462793e-20  -2.2320113189523787e-21  3.6057946217942011e-19  -9.1241456311440456e-19  -4.4900540560004315e-17  -2.6788790219771514e-21  -1.0600259643085720e-09  8.7786009570680090e-12  -5.7139398125123098e-18  -3.0344261993778169e-19  1.3259072788537480e-15  -1.3727327975915224e-17  6.3415479573067834e-15  -2.3193373694398226e-20  3.5379694561185060e-01  -2.7633363664211984e-17  4.1145304171681869e-04  2.6535841341152729e-17  3.0457202925308628e-19  7.2890663372909850e-02  -1.4957771233864131e-21  -7.2144904724250238e-16  5.1874918489772026e-14  2.2215005697622887e-06  -2.0047492472999991e-21  -4.4048876190442980e-19  9.1937417479704428e-20  -4.5045174758569452e-17  -1.0334249338425760e-20  1.4316192804860599e-21  -1.7048304249894549e-21  5.5473595332820871e-21  1.1493538202108589e-17  1.0205721239134451e-01  4.5941216360265033e-02  1.8000935971394891e-09  3.6799648242236400e-19  7.4741429092665786e-10  -2.9194906992735583e-20  -1.0032834744034690e-11  -9.0210208098821358e-21  -1.8752387897604698e-12  1.4340415864971750e-18  7.6189022985192037e-21  -2.5512932548572548e-17  -1.1180061877766682e-21  -8.2356650256235326e-20  3.1737290407330268e-02  7.9157962820392169e-15  -1.1515608522543694e-21  4.8315056786862321e-22  6.8115285524268190e-17  4.0900864521779908e-18  1.3824170445314632e-20  1.3181125278393647e-16  -1.6232101760430675e-11  4.6926285710291553e-02  1.4822650009688033e-04  1.4649899352400485e-04  -2.8306226718530135e-20  2.7110615904079145e-10  2.7069668710961716e-10  1.6457597343785455e-11  -6.4683133508272609e-15  -1.1464297429024476e-20  3.8776115567334211e-21  -2.1360499191822167e-22  -3.0506413634071644e-11  -2.4405491337755961e-19  7.9765561276296040e-03  -3.7021068024212502e-21  3.6559138977141067e-21  -1.7170427008720047e-16  -3.3404051255185483e-19  -5.3297930239748543e-20  -2.7520091260112253e-21  5.6750954724318609e-20  -3.4797204949787422e-09  -5.7169393601993264e-19  -1.9099256697825581e-20  -7.4345802608692589e-14  -1.1194396454160562e-22  -1.5111178323299686e-17  -5.2034302315972755e-15  -8.2049121566184340e-20  3.6366195098854201e-03  5.4649988786438921e-06  7.5002436975522301e-06  1.2683649110284522e-08  -4.6418175461920045e-13  2.9088488681936230e-14  -2.8776114362363649e-21  -6