<?xml version="1.0"?>
<VTKFile type="UnstructuredGrid"  version="0.1"  >
<UnstructuredGrid>
<Piece  NumberOfPoints="441" NumberOfCells="800">
<Points>
<DataArray  type="Float64"  NumberOfComponents="3"  format="ascii">-2 -2 0  -1.8 -2 0  -1.6 -2 0  -1.4 -2 0  -1.2 -2 0  -1 -2 0  -0.8 -2 0  -0.6000000000000001 -2 0  -0.3999999999999999 -2 0  -0.2 -2 0  0 -2 0  0.2000000000000002 -2 0  0.3999999999999999 -2 0  0.6000000000000001 -2 0  0.7999999999999998 -2 0  1 -2 0  1.2 -2 0  1.4 -2 0  1.6 -2 0  1.8 -2 0  2 -2 0  -2 -1.8 0  -1.8 -1.8 0  -1.6 -1.8 0  -1.4 -1.8 0  -1.2 -1.8 0  -1 -1.8 0  -0.8 -1.8 0  -0.6000000000000001 -1.8 0  -0.3999999999999999 -1.8 0  -0.2 -1.8 0  0 -1.8 0  0.2000000000000002 -1.8 0  0.3999999999999999 -1.8 0  0.6000000000000001 -1.8 0  0.7999999999999998 -1.8 0  1 -1.8 0  1.2 -1.8 0  1.4 -1.8 0  1.6 -1.8 0  1.8 -1.8 0  2 -1.8 0  -2 -1.6 0  -1.8 -1.6 0  -1.6 -1.6 0  -1.4 -1.6 0  -1.2 -1.6 0  -1 -1.6 0  -0.8 -1.6 0  -0.6000000000000001 -1.6 0  -0.3999999999999999 -1.6 0  -0.2 -1.6 0  0 -1.6 0  0.2000000000000002 -1.6 0  0.3999999999999999 -1.6 0  0.6000000000000001 -1.6 0  0.7999999999999998 -1.6 0  1 -1.6 0  1.2 -1.6 0  1.4 -1.6 0  1.6 -1.6 0  1.8 -1.6 0  2 -1.6 0  -2 -1.4 0  -1.8 -1.4 0  -1.6 -1.4 0  -1.4 -1.4 0  -1.2 -1.4 0  -1 -1.4 0  -0.8 -1.4 0  -0.6000000000000001 -1.4 0  -0.3999999999999999 -1.4 0  -0.2 -1.4 0  0 -1.4 0  0.2000000000000002 -1.4 0  0.3999999999999999 -1.4 0  0.6000000000000001 -1.4 0  0.7999999999999998 -1.4 0  1 -1.4 0  1.2 -1.4 0  1.4 -1.4 0  1.6 -1.4 0  1.8 -1.4 0  2 -1.4 0  -2 -1.2 0  -1.8 -1.2 0  -1.6 -1.2 0  -1.4 -1.2 0  -1.2 -1.2 0  -1 -1.2 0  -0.8 -1.2 0  -0.6000000000000001 -1.2 0  -0.3999999999999999 -1.2 0  -0.2 -1.2 0  0 -1.2 0  0.2000000000000002 -1.2 0  0.3999999999999999 -1.2 0  0.6000000000000001 -1.2 0  0.7999999999999998 -1.2 0  1 -1.2 0  1.2 -1.2 0  1.4 -1.2 0  1.6 -1.2 0  1.8 -1.2 0  2 -1.2 0  -2 -1 0  -1.8 -1 0  -1.6 -1 0  -1.4 -1 0  -1.2 -1 0  -1 -1 0  -0.8 -1 0  -0.6000000000000001 -1 0  -0.3999999999999999 -1 0  -0.2 -1 0  0 -1 0  0.2000000000000002 -1 0  0.3999999999999999 -1 0  0.6000000000000001 -1 0  0.7999999999999998 -1 0  1 -1 0  1.2 -1 0  1.4 -1 0  1.6 -1 0  1.8 -1 0  2 -1 0  -2 -0.8 0  -1.8 -0.8 0  -1.6 -0.8 0  -1.4 -0.8 0  -1.2 -0.8 0  -1 -0.8 0  -0.8 -0.8 0  -0.6000000000000001 -0.8 0  -0.3999999999999999 -0.8 0  -0.2 -0.8 0  0 -0.8 0  0.2000000000000002 -0.8 0  0.3999999999999999 -0.8 0  0.6000000000000001 -0.8 0  0.7999999999999998 -0.8 0  1 -0.8 0  1.2 -0.8 0  1.4 -0.8 0  1.6 -0.8 0  1.8 -0.8 0  2 -0.8 0  -2 -0.6000000000000001 0  -1.8 -0.6000000000000001 0  -1.6 -0.6000000000000001 0  -1.4 -0.6000000000000001 0  -1.2 -0.6000000000000001 0  -1 -0.6000000000000001 0  -0.8 -0.6000000000000001 0  -0.6000000000000001 -0.6000000000000001 0  -0.3999999999999999 -0.6000000000000001 0  -0.2 -0.6000000000000001 0  0 -0.6000000000000001 0  0.2000000000000002 -0.6000000000000001 0  0.3999999999999999 -0.6000000000000001 0  0.6000000000000001 -0.6000000000000001 0  0.7999999999999998 -0.6000000000000001 0  1 -0.6000000000000001 0  1.2 -0.6000000000000001 0  1.4 -0.6000000000000001 0  1.6 -0.6000000000000001 0  1.8 -0.6000000000000001 0  2 -0.6000000000000001 0  -2 -0.3999999999999999 0  -1.8 -0.3999999999999999 0  -1.6 -0.3999999999999999 0  -1.4 -0.3999999999999999 0  -1.2 -0.3999999999999999 0  -1 -0.3999999999999999 0  -0.8 -0.3999999999999999 0  -0.6000000000000001 -0.3999999999999999 0  -0.3999999999999999 -0.3999999999999999 0  -0.2 -0.3999999999999999 0  0 -0.3999999999999999 0  0.2000000000000002 -0.3999999999999999 0  0.3999999999999999 -0.3999999999999999 0  0.6000000000000001 -0.3999999999999999 0  0.7999999999999998 -0.3999999999999999 0  1 -0.3999999999999999 0  1.2 -0.3999999999999999 0  1.4 -0.3999999999999999 0  1.6 -0.3999999999999999 0  1.8 -0.3999999999999999 0  2 -0.3999999999999999 0  -2 -0.2 0  -1.8 -0.2 0  -1.6 -0.2 0  -1.4 -0.2 0  -1.2 -0.2 0  -1 -0.2 0  -0.8 -0.2 0  -0.6000000000000001 -0.2 0  -0.3999999999999999 -0.2 0  -0.2 -0.2 0  0 -0.2 0  0.2000000000000002 -0.2 0  0.3999999999999999 -0.2 0  0.6000000000000001 -0.2 0  0.7999999999999998 -0.2 0  1 -0.2 0  1.2 -0.2 0  1.4 -0.2 0  1.6 -0.2 0  1.8 -0.2 0  2 -0.2 0  -2 0 0  -1.8 0 0  -1.6 0 0  -1.4 0 0  -1.2 0 0  -1 0 0  -0.8 0 0  -0.6000000000000001 0 0  -0.3999999999999999 0 0  -0.2 0 0  0 0 0  0.2000000000000002 0 0  0.3999999999999999 0 0  0.6000000000000001 0 0  0.7999999999999998 0 0  1 0 0  1.2 0 0  1.4 0 0  1.6 0 0  1.8 0 0  2 0 0  -2 0.2000000000000002 0  -1.8 0.2000000000000002 0  -1.6 0.2000000000000002 0  -1.4 0.2000000000000002 0  -1.2 0.2000000000000002 0  -1 0.2000000000000002 0  -0.8 0.2000000000000002 0  -0.6000000000000001 0.2000000000000002 0  -0.3999999999999999 0.2000000000000002 0  -0.2 0.2000000000000002 0  0 0.2000000000000002 0  0.2000000000000002 0.2000000000000002 0  0.3999999999999999 0.2000000000000002 0  0.6000000000000001 0.2000000000000002 0  0.7999999999999998 0.2000000000000002 0  1 0.2000000000000002 0  1.2 0.2000000000000002 0  1.4 0.2000000000000002 0  1.6 0.2000000000000002 0  1.8 0.2000000000000002 0  2 0.2000000000000002 0  -2 0.3999999999999999 0  -1.8 0.3999999999999999 0  -1.6 0.3999999999999999 0  -1.4 0.3999999999999999 0  -1.2 0.3999999999999999 0  -1 0.3999999999999999 0  -0.8 0.3999999999999999 0  -0.6000000000000001 0.3999999999999999 0  -0.3999999999999999 0.3999999999999999 0  -0.2 0.3999999999999999 0  0 0.3999999999999999 0  0.2000000000000002 0.3999999999999999 0  0.3999999999999999 0.3999999999999999 0  0.6000000000000001 0.3999999999999999 0  0.7999999999999998 0.3999999999999999 0  1 0.3999999999999999 0  1.2 0.3999999999999999 0  1.4 0.3999999999999999 0  1.6 0.3999999999999999 0  1.8 0.3999999999999999 0  2 0.3999999999999999 0  -2 0.6000000000000001 0  -1.8 0.6000000000000001 0  -1.6 0.6000000000000001 0  -1.4 0.6000000000000001 0  -1.2 0.6000000000000001 0  -1 0.6000000000000001 0  -0.8 0.6000000000000001 0  -0.6000000000000001 0.6000000000000001 0  -0.3999999999999999 0.6000000000000001 0  -0.2 0.6000000000000001 0  0 0.6000000000000001 0  0.2000000000000002 0.6000000000000001 0  0.3999999999999999 0.6000000000000001 0  0.6000000000000001 0.6000000000000001 0  0.7999999999999998 0.6000000000000001 0  1 0.6000000000000001 0  1.2 0.6000000000000001 0  1.4 0.6000000000000001 0  1.6 0.6000000000000001 0  1.8 0.6000000000000001 0  2 0.6000000000000001 0  -2 0.7999999999999998 0  -1.8 0.7999999999999998 0  -1.6 0.7999999999999998 0  -1.4 0.7999999999999998 0  -1.2 0.7999999999999998 0  -1 0.7999999999999998 0  -0.8 0.7999999999999998 0  -0.6000000000000001 0.7999999999999998 0  -0.3999999999999999 0.7999999999999998 0  -0.2 0.7999999999999998 0  0 0.7999999999999998 0  0.2000000000000002 0.7999999999999998 0  0.3999999999999999 0.7999999999999998 0  0.6000000000000001 0.7999999999999998 0  0.7999999999999998 0.7999999999999998 0  1 0.7999999999999998 0  1.2 0.7999999999999998 0  1.4 0.7999999999999998 0  1.6 0.7999999999999998 0  1.8 0.7999999999999998 0  2 0.7999999999999998 0  -2 1 0  -1.8 1 0  -1.6 1 0  -1.4 1 0  -1.2 1 0  -1 1 0  -0.8 1 0  -0.6000000000000001 1 0  -0.3999999999999999 1 0  -0.2 1 0  0 1 0  0.2000000000000002 1 0  0.3999999999999999 1 0  0.6000000000000001 1 0  0.7999999999999998 1 0  1 1 0  1.2 1 0  1.4 1 0  1.6 1 0  1.8 1 0  2 1 0  -2 1.2 0  -1.8 1.2 0  -1.6 1.2 0  -1.4 1.2 0  -1.2 1.2 0  -1 1.2 0  -0.8 1.2 0  -0.6000000000000001 1.2 0  -0.3999999999999999 1.2 0  -0.2 1.2 0  0 1.2 0  0.2000000000000002 1.2 0  0.3999999999999999 1.2 0  0.6000000000000001 1.2 0  0.7999999999999998 1.2 0  1 1.2 0  1.2 1.2 0  1.4 1.2 0  1.6 1.2 0  1.8 1.2 0  2 1.2 0  -2 1.4 0  -1.8 1.4 0  -1.6 1.4 0  -1.4 1.4 0  -1.2 1.4 0  -1 1.4 0  -0.8 1.4 0  -0.6000000000000001 1.4 0  -0.3999999999999999 1.4 0  -0.2 1.4 0  0 1.4 0  0.2000000000000002 1.4 0  0.3999999999999999 1.4 0  0.6000000000000001 1.4 0  0.7999999999999998 1.4 0  1 1.4 0  1.2 1.4 0  1.4 1.4 0  1.6 1.4 0  1.8 1.4 0  2 1.4 0  -2 1.6 0  -1.8 1.6 0  -1.6 1.6 0  -1.4 1.6 0  -1.2 1.6 0  -1 1.6 0  -0.8 1.6 0  -0.6000000000000001 1.6 0  -0.3999999999999999 1.6 0  -0.2 1.6 0  0 1.6 0  0.2000000000000002 1.6 0  0.3999999999999999 1.6 0  0.6000000000000001 1.6 0  0.7999999999999998 1.6 0  1 1.6 0  1.2 1.6 0  1.4 1.6 0  1.6 1.6 0  1.8 1.6 0  2 1.6 0  -2 1.8 0  -1.8 1.8 0  -1.6 1.8 0  -1.4 1.8 0  -1.2 1.8 0  -1 1.8 0  -0.8 1.8 0  -0.6000000000000001 1.8 0  -0.3999999999999999 1.8 0  -0.2 1.8 0  0 1.8 0  0.2000000000000002 1.8 0  0.3999999999999999 1.8 0  0.6000000000000001 1.8 0  0.7999999999999998 1.8 0  1 1.8 0  1.2 1.8 0  1.4 1.8 0  1.6 1.8 0  1.8 1.8 0  2 1.8 0  -2 2 0  -1.8 2 0  -1.6 2 0  -1.4 2 0  -1.2 2 0  -1 2 0  -0.8 2 0  -0.6000000000000001 2 0  -0.3999999999999999 2 0  -0.2 2 0  0 2 0  0.2000000000000002 2 0  0.3999999999999999 2 0  0.6000000000000001 2 0  0.7999999999999998 2 0  1 2 0  1.2 2 0  1.4 2 0  1.6 2 0  1.8 2 0  2 2 0  </DataArray>
</Points>
<Cells>
[...]
<PointData  Scalars="f_18-1"> 
<DataArray  type="Float64"  Name="f_18-1"  format="ascii">2.2918598644190517e-11  1.0944572281396002e-10  -1.8430792412082234e-10  -4.9238228121107103e-10  6.7602099299979021e-10  1.7332515921937467e-09  -3.9264832078130998e-10  -2.8537963353371796e-09  -1.8770836658456958e-09  -4.6122105368511727e-11  1.2529068812361501e-10  -1.3546193694103101e-10  -7.9176407364247463e-11  -1.8639991706976246e-11  4.9619604062625237e-13  7.4161296647163982e-12  1.8479972291067080e-12  -2.1089987124846843e-13  1.5371525325408891e-13  1.6528430467844596e-13  3.4446802381397892e-14  8.3375018241489609e-11  -6.9451993665812264e-11  -2.3075836361392759e-10  5.4707431658974523e-10  1.0207297374237804e-09  -1.9274657104137271e-09  -3.7944835148779958e-09  1.2820138741128893e-09  5.7906388820883892e-09  3.4147360650582322e-09  4.3439980331597109e-10  2.5942514972637595e-10  3.2073800202056437e-10  6.5911115093236709e-11  -9.3952349990987708e-12  -1.5224691590753207e-11  -6.1110171307930959e-12  8.3474328861476362e-13  -6.2919855873640259e-13  -5.1942897934024611e-13  -4.1520106192968065e-14  2.5392292109368910e-12  -1.9440898288472242e-10  3.3556665965464162e-10  1.0685079503003499e-09  -2.7706744779933674e-09  -4.6762051303477396e-09  9.2010977576106619e-09  1.6937028154033954e-08  -4.3607720843958220e-09  -2.0513467547964066e-08  -1.1338338271473865e-08  -2.3617417536506594e-09  -1.4440494198444111e-09  -5.5502909652823241e-10  1.4639674714397724e-10  8.3433956223947233e-11  1.4183950895939510e-11  -7.8517148698679221e-12  2.6363121546825327e-12  4.1409750952946885e-12  -3.6683004971441765e-13  -1.6213366654598961e-10  3.7015267027717879e-11  8.6500614723409540e-10  -1.8121820559417695e-09  -4.6948754007525135e-09  1.4268627345611039e-08  2.1052686295053434e-08  -4.4639761726049585e-08  -7.5902993485644900e-08  1.3064524522927124e-08  6.7906173605153046e-08  3.2097645730621507e-08  6.2589063979574462e-09  2.7178343395897765e-09  -6.6081845229449533e-10  -7.8679249651333146e-10  2.3783862463161651e-11  7.9003763317832537e-11  1.8287845111424258e-12  -2.7751521515859399e-11  1.5196560539616854e-12  -1.3302942559829529e-10  3.5968460768514964e-10  -1.9724950737485168e-10  -3.8310834046127278e-09  9.2023597550676343e-09  2.1061769678859286e-08  -7.1216827972043419e-08  -9.8727275537736643e-08  2.0694978143660910e-07  3.4243329000586819e-07  -1.2294241879667120e-08  -1.8749930742996481e-07  -6.0776543709819736e-08  -1.0491077569770015e-09  3.1542785411377333e-09  5.3653769266494413e-09  8.0696870167766115e-11  -8.0864181822506960e-10  -7.2110721843653533e-11  1.1615159951941974e-10  8.1421096905438491e-12  2.3107535660925313e-11  2.5035405066158755e-10  -1.4259321572993609e-09  1.0351319001399599e-09  1.6988567297369602e-08  -4.4620748161951242e-08  -9.8787534497327773e-08  3.4642866591092908e-07  4.9144315164612542e-07  -9.0741886412057632e-07  -1.5457150455589654e-06  -1.9215018809634661e-07  3.4622329567049410e-07  -1.2415476460110875e-08  -5.8847555561230497e-08  -2.3734860464345922e-08  -3.9229882389959602e-09  6.0911787960444691e-09  5.5477477391515543e-10  -3.0114587270254692e-10  -1.2092595099311417e-11  6.7459211132330903e-11  -3.1965732465049528e-11  -9.3776093782084533e-10  5.5870074808869362e-09  -4.2902737509571756e-09  -7.5973679555119244e-08  2.0683979286024876e-07  4.9182312818644618e-07  -1.6365057573395352e-06  -2.6037549763544859e-06  3.6447661928733888e-06  6.8248860508391442e-06  1.7891039946771677e-06  4.1329297115113350e-08  5.6907836452478313e-07  1.5681747117021377e-07  9.1733255948388718e-10  -2.9043867014887841e-08  -4.6797260013800746e-09  1.7361357116221943e-09  -1.5489937945208177e-09  2.2435170527032520e-11  -7.5219480761979455e-11  -2.2976674488566481e-11  3.3990673443807974e-09  -2.0498803043848137e-08  1.2910539927981283e-08  3.4282062781619041e-07  -9.0700869992247485e-07  -2.6061595418734665e-06  7.3864896641017068e-06  1.4483078343201130e-05  -1.2185882588951570e-05  -2.8101243653162260e-05  -9.0987566787742887e-06  -2.6962497285789217e-06  -1.5036987812029216e-06  2.9805400664745925e-07  1.3183764620812783e-07  1.7966823507590613e-08  -1.9134333461940570e-08  1.8985990740086176e-08  1.9955464072335952e-13  -6.2957942076110469e-12  6.2666105832059475e-11  4.7831724758828618e-10  -1.1373223036758175e-08  6.7863143813278757e-08  -1.1567285310385776e-08  -1.5480787700432066e-06  3.6438896699726848e-06  1.4498834542667755e-05  -3.0409423194596777e-05  -8.2254488790974440e-05  2.0784772848626130e-05  9.7740307911143722e-05  2.4732118601790030e-05  5.1657460146399425e-06  -1.7472047646270599e-06  -1.4114326558879208e-06  2.7280131643248339e-07  8.8057014788945416e-08  -1.0512302192758522e-07  -8.2927910738986888e-13  9.2785001861757515e-12  -6.7808844770517721e-11  2.6396802894307238e-10  -2.3846321375272555e-09  3.2154681566667887e-08  -1.8727044626905966e-07  -1.9557568624279631e-07  6.8396897272846755e-06  -1.2191658269917632e-05  -8.2365108788756502e-05  9.7686445312173610e-05  4.5716312690515686e-04  1.4858629410127353e-04  -2.2187985397196448e-04  1.8034397941409046e-05  1.4119490963079492e-05  1.1133220257118200e-05  -4.3067396627609387e-06  2.2831018531977230e-07  2.2510620801256821e-07  -1.6861399358930016e-12  4.4568094134516304e-12  -3.9495719003065909e-11  3.0882564977763345e-10  -1.4471761239626760e-09  6.2805159431219615e-09  -6.0849038896508456e-08  3.4513390003941443e-07  1.8047211482654270e-06  -2.8197969618893353e-05  2.0901013835668243e-05  4.5793436031808289e-04  -3.4501026019997640e-05  -2.2786000928246798e-03  -2.0401583854446730e-03  -4.7158536586303607e-05  -3.3475484076000609e-04  4.9929548783566478e-06  2.1613598546475998e-05  -4.0218737547270972e-06  5.1451257930537868e-07  -8.1296946284434635e-13  2.4650181372421540e-12  -8.8684457069668400e-12  5.8250437606136271e-11  -5.5437169935295393e-10  2.7203390274545851e-09  -1.0199393764669561e-09  -1.2589021782147311e-08  4.5639848140396341e-08  -9.1652693575362022e-06  9.8399168213832340e-05  1.4724970659679912e-04  -2.2858496652235299e-03  -3.5756021121007642e-03  6.7713456377308766e-03  1.2385887237997426e-02  1.9705074999033893e-03  -6.3431628133448685e-04  5.2031862547544742e-06  1.1621175222602520e-05  -2.8382052717362033e-06  1.8670749938789770e-13  -2.0517002011666959e-13  3.9328502374434936e-13  -1.3549435506805194e-11  1.5310456465468545e-10  -6.5781150386674944e-10  3.1393533569998163e-09  -5.9069886824330567e-08  5.7038766913781525e-07  -2.7082438231055035e-06  2.4967467075228649e-05  -2.2668092707409828e-04  -2.0521648519387283e-03  6.7936169258319915e-03  4.8369461947860133e-02  7.0457460383626089e-02  2.8734936947982865e-02  1.9701947874352782e-03  -3.3395351343554848e-04  1.3034595200356874e-05  -3.4817005925123026e-06  1.3771710876419615e-13  -5.5189190236170371e-13  3.1578806604293224e-12  -1.4911262174741247e-11  9.2610749903568406e-11  -8.1396385862951008e-10  5.3544184766964169e-09  -2.3529123942002471e-08  1.5703242106087482e-07  -1.5071785665075948e-06  5.1854354983470050e-06  1.7544982502115666e-05  -3.9853491257738041e-05  1.2435075989225582e-02  7.0450381794430264e-02  1.2213240429077275e-01  7.0457723438071593e-02  1.2385643984718125e-02  -4.5466305803834296e-05  1.3863085603082861e-05  1.0332168255588350e-05  4.5546393691625180e-15  -1.2734778076674405e-14  2.3416987059868528e-13  -3.1416754100247410e-12  1.4414238326306231e-11  -1.1826297845508584e-11  2.1296765473724157e-10  -3.9423322512810115e-09  -2.4724898287047322e-10  2.9983406558607732e-07  -1.7405529159583952e-06  1.4144571531560611e-05  -3.3612283781832378e-04  1.9744190517701063e-03  2.8727288765640638e-02  7.0457680834042732e-02  4.8370839206256323e-02  6.7710577651651288e-03  -2.0379093805955174e-03  -2.3426585590764475e-04  4.9461258279624060e-05  -2.0272843909855959e-14  5.5101066801670918e-14  -4.3089433699121619e-13  3.0540898528828830e-12  -1.5392734418818210e-11  7.7709686635000870e-11  -6.6140831015131627e-10  5.4404453234306741e-09  -2.8437303141892077e-08  1.3593143650533845e-07  -1.4203069107705305e-06  1.1111192601140036e-05  5.0353994873290872e-06  -6.3427927516205922e-04  1.9696474733708106e-03  1.2386767099942948e-02  6.7719271195598738e-03  -3.5762038374167692e-03  -2.2757817423473617e-03  1.3352243439608728e-04  1.9547887956043470e-04  -4.6948110877791775e-15  9.7500794099709425e-15  3.7984236803301494e-15  6.2067263968469351e-14  -2.7992771405593410e-12  2.2410807983104301e-11  -5.6937754616902152e-11  -5.7505850306500841e-11  -1.6488611285796470e-09  1.3577016702098324e-08  2.5746408990023767e-07  -4.2643768438015771e-06  2.1737048228285130e-05  5.0395951212098418e-06  -3.3471103944134278e-04  -4.7025027144426888e-05  -2.0402028213874967e-03  -2.2791260258207711e-03  -3.2518481128186021e-05  4.4736879055873579e-04  4.1571977572774519e-05  2.0058580551168309e-15  -6.9065006815009203e-15  5.2736432573699929e-14  -4.4868636033897005e-13  3.3520755915258063e-12  -1.8559339638997716e-11  7.7227318869755939e-11  -4.2651132487224130e-10  4.2147578387023769e-09  -3.2389999511915298e-08  1.1273914045678951e-07  2.8795170651489299e-07  -4.2641358450664428e-06  1.1099767719800331e-05  1.4106964027466475e-05  1.8024114539199779e-05  -2.2185612536582944e-04  1.4853020632758082e-04  4.5740265257085828e-04  9.9984007688214564e-05  -1.6451852822651616e-04  -1.0374374429848454e-15  1.9754228182159113e-15  -3.6223015153875463e-15  -1.5525677139652914e-14  1.6814660745100032e-13  -1.4961257507054402e-12  1.1293563646840187e-11  -1.1240274429383420e-11  -8.2433112488020660e-10  9.6345663390909235e-09  -5.2322938248201616e-08  1.1122117248517195e-07  2.5593031931977795e-07  -1.4129029038346626e-06  -1.7224850611986287e-06  5.1797334821763419e-06  2.4699818530159087e-05  9.7720382809092686e-05  2.0247717118488084e-05  -7.6426733644253478e-05  -6.0751144355946150e-05  -3.1765575175666332e-16  1.6709324411382692e-15  -1.1303579404461080e-14  5.1352541510249528e-14  -1.2279577168475485e-13  2.8590392759761498e-13  -4.7526081394909502e-12  4.4720398705767293e-11  -1.4366388608554509e-10  -6.8999860869761882e-10  8.7180988394718536e-09  -3.2799611078357934e-08  2.0235392603582345e-08  1.3829748702216074e-07  2.6902122595743676e-07  -1.6015624127998196e-06  -2.7462640947996731e-06  -9.0332051870435507e-06  -2.8511085156533858e-05  -1.2838803675291620e-05  2.7939096819444153e-05  3.0518215806442156e-16  -8.5390038403730498e-16  4.7604085022062182e-15  -1.8334553842480141e-14  8.3965536942564246e-14  -8.9741056782977958e-13  9.1151096155623847e-12  -6.0656496953163199e-11  2.4224979966246813e-10  -3.6423118587137977e-10  -1.5489262033886262e-09  8.4795467637409613e-09  -3.3493411797133445e-09  -5.6901816248438426e-08  -1.3911313469888191e-10  3.1341656699436665e-07  1.1389713910512545e-06  7.4417940021950679e-08  3.7465291686689404e-06  1.2093852090193466e-05  1.0755859542270953e-05  </DataArray> 
</PointData> 
</Piece>
</UnstructuredGrid>
</VTKFile>