<?xml version="1.0"?>
<VTKFile type="UnstructuredGrid"  version="0.1"  >
<UnstructuredGrid>
<Piece  NumberOfPoints="961" NumberOfCells="1800">
<Points>
<DataArray  type="Float64"  NumberOfComponents="3"  format="ascii">0 0 0  0.06666666666666667 0 0  0.1333333333333333 0 0  0.2 0 0  0.2666666666666667 0 0  0.3333333333333333 0 0  0.4 0 0  0.4666666666666667 0 0  0.5333333333333333 0 0  0.6 0 0  0.6666666666666666 0 0  0.7333333333333333 0 0  0.8 0 0  0.8666666666666667 0 0  0.9333333333333333 0 0  1 0 0  1.066666666666667 0 0  1.133333333333333 0 0  1.2 0 0  1.266666666666667 0 0  1.333333333333333 0 0  1.4 0 0  1.466666666666667 0 0  1.533333333333333 0 0  1.6 0 0  1.666666666666667 0 0  1.733333333333333 0 0  1.8 0 0  1.866666666666667 0 0  1.933333333333333 0 0  2 0 0  0 0.06666666666666667 0  0.06666666666666667 0.06666666666666667 0  0.1333333333333333 0.06666666666666667 0  0.2 0.06666666666666667 0  0.2666666666666667 0.06666666666666667 0  0.3333333333333333 0.06666666666666667 0  0.4 0.06666666666666667 0  0.4666666666666667 0.06666666666666667 0  0.5333333333333333 0.06666666666666667 0  0.6 0.06666666666666667 0  0.6666666666666666 0.06666666666666667 0  0.7333333333333333 0.06666666666666667 0  0.8 0.06666666666666667 0  0.8666666666666667 0.06666666666666667 0  0.9333333333333333 0.06666666666666667 0  1 0.06666666666666667 0  1.066666666666667 0.06666666666666667 0  1.133333333333333 0.06666666666666667 0  1.2 0.06666666666666667 0  1.266666666666667 0.06666666666666667 0  1.333333333333333 0.06666666666666667 0  1.4 0.06666666666666667 0  1.466666666666667 0.06666666666666667 0  1.533333333333333 0.06666666666666667 0  1.6 0.06666666666666667 0  1.666666666666667 0.06666666666666667 0  1.733333333333333 0.06666666666666667 0  1.8 0.06666666666666667 0  1.866666666666667 0.06666666666666667 0  1.933333333333333 0.06666666666666667 0  2 0.06666666666666667 0  0 0.1333333333333333 0  0.06666666666666667 0.1333333333333333 0  0.1333333333333333 0.1333333333333333 0  0.2 0.1333333333333333 0  0.2666666666666667 0.1333333333333333 0  0.3333333333333333 0.1333333333333333 0  0.4 0.1333333333333333 0  0.4666666666666667 0.1333333333333333 0  0.5333333333333333 0.1333333333333333 0  0.6 0.1333333333333333 0  0.6666666666666666 0.1333333333333333 0  0.7333333333333333 0.1333333333333333 0  0.8 0.1333333333333333 0  0.8666666666666667 0.1333333333333333 0  0.9333333333333333 0.1333333333333333 0  1 0.1333333333333333 0  1.066666666666667 0.1333333333333333 0  1.133333333333333 0.1333333333333333 0  1.2 0.1333333333333333 0  1.266666666666667 0.1333333333333333 0  1.333333333333333 0.1333333333333333 0  1.4 0.1333333333333333 0  1.466666666666667 0.1333333333333333 0  1.533333333333333 0.1333333333333333 0  1.6 0.1333333333333333 0  1.666666666666667 0.1333333333333333 0  1.733333333333333 0.1333333333333333 0  1.8 0.1333333333333333 0  1.866666666666667 0.1333333333333333 0  1.933333333333333 0.1333333333333333 0  2 0.1333333333333333 0  0 0.2 0  0.06666666666666667 0.2 0  0.1333333333333333 0.2 0  0.2 0.2 0  0.2666666666666667 0.2 0  0.3333333333333333 0.2 0  0.4 0.2 0  0.4666666666666667 0.2 0  0.5333333333333333 0.2 0  0.6 0.2 0  0.6666666666666666 0.2 0  0.7333333333333333 0.2 0  0.8 0.2 0  0.8666666666666667 0.2 0  0.9333333333333333 0.2 0  1 0.2 0  1.066666666666667 0.2 0  1.133333333333333 0.2 0  1.2 0.2 0  1.266666666666667 0.2 0  1.333333333333333 0.2 0  1.4 0.2 0  1.466666666666667 0.2 0  1.533333333333333 0.2 0  1.6 0.2 0  1.666666666666667 0.2 0  1.733333333333333 0.2 0  1.8 0.2 0  1.866666666666667 0.2 0  1.933333333333333 0.2 0  2 0.2 0  0 0.2666666666666667 0  0.06666666666666667 0.2666666666666667 0  0.1333333333333333 0.2666666666666667 0  0.2 0.2666666666666667 0  0.2666666666666667 0.2666666666666667 0  0.3333333333333333 0.2666666666666667 0  0.4 0.2666666666666667 0  0.4666666666666667 0.2666666666666667 0  0.5333333333333333 0.2666666666666667 0  0.6 0.2666666666666667 0  0.6666666666666666 0.2666666666666667 0  0.7333333333333333 0.2666666666666667 0  0.8 0.2666666666666667 0  0.8666666666666667 0.2666666666666667 0  0.9333333333333333 0.2666666666666667 0  1 0.2666666666666667 0  1.066666666666667 0.2666666666666667 0  1.133333333333333 0.2666666666666667 0  1.2 0.2666666666666667 0  1.266666666666667 0.2666666666666667 0  1.333333333333333 0.2666666666666667 0  1.4 0.2666666666666667 0  1.466666666666667 0.2666666666666667 0  1.533333333333333 0.2666666666666667 0  1.6 0.2666666666666667 0  1.666666666666667 0.2666666666666667 0  1.733333333333333 0.2666666666666667 0  1.8 0.2666666666666667 0  1.866666666666667 0.2666666666666667 0  1.933333333333333 0.2666666666666667 0  2 0.2666666666666667 0  0 0.3333333333333333 0  0.06666666666666667 0.3333333333333333 0  0.1333333333333333 0.3333333333333333 0  0.2 0.3333333333333333 0  0.2666666666666667 0.3333333333333333 0  0.3333333333333333 0.3333333333333333 0  0.4 0.3333333333333333 0  0.4666666666666667 0.3333333333333333 0  0.5333333333333333 0.3333333333333333 0  0.6 0.3333333333333333 0  0.6666666666666666 0.3333333333333333 0  0.7333333333333333 0.3333333333333333 0  0.8 0.3333333333333333 0  0.8666666666666667 0.3333333333333333 0  0.9333333333333333 0.3333333333333333 0  1 0.3333333333333333 0  1.066666666666667 0.3333333333333333 0  1.133333333333333 0.3333333333333333 0  1.2 0.3333333333333333 0  1.266666666666667 0.3333333333333333 0  1.333333333333333 0.3333333333333333 0  1.4 0.3333333333333333 0  1.466666666666667 0.3333333333333333 0  1.533333333333333 0.3333333333333333 0  1.6 0.3333333333333333 0  1.666666666666667 0.3333333333333333 0  1.733333333333333 0.3333333333333333 0  1.8 0.3333333333333333 0  1.866666666666667 0.3333333333333333 0  1.933333333333333 0.3333333333333333 0  2 0.3333333333333333 0  0 0.4 0  0.06666666666666667 0.4 0  0.1333333333333333 0.4 0  0.2 0.4 0  0.2666666666666667 0.4 0  0.3333333333333333 0.4 0  0.4 0.4 0  0.4666666666666667 0.4 0  0.5333333333333333 0.4 0  0.6 0.4 0  0.6666666666666666 0.4 0  0.7333333333333333 0.4 0  0.8 0.4 0  0.8666666666666667 0.4 0  0.9333333333333333 0.4 0  1 0.4 0  1.066666666666667 0.4 0  1.133333333333333 0.4 0  1.2 0.4 0  1.266666666666667 0.4 0  1.333333333333333 0.4 0  1.4 0.4 0  1.466666666666667 0.4 0  1.533333333333333 0.4 0  1.6 0.4 0  1.666666666666667 0.4 0  1.733333333333333 0.4 0  1.8 0.4 0  1.866666666666667 0.4 0  1.933333333333333 0.4 0  2 0.4 0  0 0.4666666666666667 0  0.06666666666666667 0.4666666666666667 0  0.1333333333333333 0.4666666666666667 0  0.2 0.4666666666666667 0  0.2666666666666667 0.4666666666666667 0  0.3333333333333333 0.4666666666666667 0  0.4 0.4666666666666667 0  0.4666666666666667 0.4666666666666667 0  0.5333333333333333 0.4666666666666667 0  0.6 0.4666666666666667 0  0.6666666666666666 0.4666666666666667 0  0.7333333333333333 0.4666666666666667 0  0.8 0.4666666666666667 0  0.8666666666666667 0.4666666666666667 0  0.9333333333333333 0.4666666666666667 0  1 0.4666666666666667 0  1.066666666666667 0.4666666666666667 0  1.133333333333333 0.4666666666666667 0  1.2 0.4666666666666667 0  1.266666666666667 0.4666666666666667 0  1.333333333333333 0.4666666666666667 0  1.4 0.4666666666666667 0  1.466666666666667 0.4666666666666667 0  1.533333333333333 0.4666666666666667 0  1.6 0.4666666666666667 0  1.666666666666667 0.4666666666666667 0  1.733333333333333 0.4666666666666667 0  1.8 0.4666666666666667 0  1.866666666666667 0.4666666666666667 0  1.933333333333333 0.4666666666666667 0  2 0.4666666666666667 0  0 0.5333333333333333 0  0.06666666666666667 0.5333333333333333 0  0.1333333333333333 0.5333333333333333 0  0.2 0.5333333333333333 0  0.2666666666666667 0.5333333333333333 0  0.3333333333333333 0.5333333333333333 0  0.4 0.5333333333333333 0  0.4666666666666667 0.5333333333333333 0  0.5333333333333333 0.5333333333333333 0  0.6 0.5333333333333333 0  0.6666666666666666 0.5333333333333333 0  0.7333333333333333 0.5333333333333333 0  0.8 0.5333333333333333 0  0.8666666666666667 0.5333333333333333 0  0.9333333333333333 0.5333333333333333 0  1 0.5333333333333333 0  1.066666666666667 0.5333333333333333 0  1.133333333333333 0.5333333333333333 0  1.2 0.5333333333333333 0  1.266666666666667 0.5333333333333333 0  1.333333333333333 0.5333333333333333 0  1.4 0.5333333333333333 0  1.466666666666667 0.5333333333333333 0  1.533333333333333 0.5333333333333333 0  1.6 0.5333333333333333 0  1.666666666666667 0.5333333333333333 0  1.733333333333333 0.5333333333333333 0  1.8 0.5333333333333333 0  1.866666666666667 0.5333333333333333 0  1.933333333333333 0.5333333333333333 0  2 0.5333333333333333 0  0 0.6 0  0.06666666666666667 0.6 0  0.1333333333333333 0.6 0  0.2 0.6 0  0.2666666666666667 0.6 0  0.3333333333333333 0.6 0  0.4 0.6 0  0.4666666666666667 0.6 0  0.5333333333333333 0.6 0  0.6 0.6 0  0.6666666666666666 0.6 0  0.7333333333333333 0.6 0  0.8 0.6 0  0.8666666666666667 0.6 0  0.9333333333333333 0.6 0  1 0.6 0  1.066666666666667 0.6 0  1.133333333333333 0.6 0  1.2 0.6 0  1.266666666666667 0.6 0  1.333333333333333 0.6 0  1.4 0.6 0  1.466666666666667 0.6 0  1.533333333333333 0.6 0  1.6 0.6 0  1.666666666666667 0.6 0  1.733333333333333 0.6 0  1.8 0.6 0  1.866666666666667 0.6 0  1.933333333333333 0.6 0  2 0.6 0  0 0.6666666666666666 0  0.06666666666666667 0.6666666666666666 0  0.1333333333333333 0.6666666666666666 0  0.2 0.6666666666666666 0  0.2666666666666667 0.6666666666666666 0  0.3333333333333333 0.6666666666666666 0  0.4 0.6666666666666666 0  0.4666666666666667 0.6666666666666666 0  0.5333333333333333 0.6666666666666666 0  0.6 0.6666666666666666 0  0.6666666666666666 0.6666666666666666 0  0.7333333333333333 0.6666666666666666 0  0.8 0.6666666666666666 0  0.8666666666666667 0.6666666666666666 0  0.9333333333333333 0.6666666666666666 0  1 0.6666666666666666 0  1.066666666666667 0.6666666666666666 0  1.133333333333333 0.6666666666666666 0  1.2 0.6666666666666666 0  1.266666666666667 0.6666666666666666 0  1.333333333333333 0.6666666666666666 0  1.4 0.6666666
[...]
<PointData  Scalars="f_18-1"> 
<DataArray  type="Float64"  Name="f_18-1"  format="ascii">4.3723313263493756e-03  4.9063171076005035e-03  6.2552886271994889e-03  8.4625439718873027e-03  1.1515494868816634e-02  1.5343109653987252e-02  1.9815449803085357e-02  2.4760946947181756e-02  2.9987094996645192e-02  3.5285082239460260e-02  4.0419970658032635e-02  4.5126592457481601e-02  4.9124488243168007e-02  5.2147876716391504e-02  5.3978963216594379e-02  5.4475247757642092e-02  5.3586575683716907e-02  5.1361247936543411e-02  4.7941968292883733e-02  4.3552651052384476e-02  3.8477207258677239e-02  3.3032031006100561e-02  2.7535090489479028e-02  2.2275824799139345e-02  1.7490716260048635e-02  1.3348840457938504e-02  9.9497923846379802e-03  7.3337016204436303e-03  5.5006737076377463e-03  4.4366375623273507e-03  4.1487338982843297e-03  4.6621884930661750e-03  5.1476154353335161e-03  6.5442889109693543e-03  8.8489388500458694e-03  1.2029612468806076e-02  1.5992428629209372e-02  2.0579700069466026e-02  2.5599454797996708e-02  3.0857662499129045e-02  3.6161001603934886e-02  4.1293779123945912e-02  4.6002641954129980e-02  5.0009404490565929e-02  5.3044506940336099e-02  5.4884339831527545e-02  5.5380996439211259e-02  5.4480292166179639e-02  5.2228054540272933e-02  4.8765996978308607e-02  4.4318454988720592e-02  3.9171144016850623e-02  3.3643583767240422e-02  2.8057988011144303e-02  2.2708758986405259e-02  1.7837481278739731e-02  1.3617825682884388e-02  1.0152890387253796e-02  7.4846985607873598e-03  5.6126837109173010e-03  4.5155177749216730e-03  4.1667315761247572e-03  5.2582253572393805e-03  5.7925372870007222e-03  7.3708269994008204e-03  9.9858137812568522e-03  1.3575412071432079e-02  1.7975166075989042e-02  2.2929694229298365e-02  2.8172832324190541e-02  3.3505500639303916e-02  3.8792031738932212e-02  4.3886221340731689e-02  4.8575186455208121e-02  5.2587320433077761e-02  5.5640102301546944e-02  5.7491555608735687e-02  5.7977609440490477e-02  5.7032621637430107e-02  5.4695800116914557e-02  5.1106584490891560e-02  4.6490969145029939e-02  4.1139994435743503e-02  3.5381834796451510e-02  2.9550032525745812e-02  2.3951899063768392e-02  1.8842072818164888e-02  1.4405922695832513e-02  1.0755662109890068e-02  7.9391145268058877e-03  5.9579503810194478e-03  4.7897874772875873e-03  4.4074259174449893e-03  6.1616122417822404e-03  6.8029026531728799e-03  8.7125249269576349e-03  1.1892744929444440e-02  1.6239427061427801e-02  2.1447926603698104e-02  2.7052894028464544e-02  3.2626973136882120e-02  3.7968359483782417e-02  4.3085098793478105e-02  4.7993846315244879e-02  5.2566353712869718e-02  5.6537015700761910e-02  5.9591103009449059e-02  6.1448138267958245e-02  6.1913104006819916e-02  6.0899724717019557e-02  5.8435646981728900e-02  5.4656102439728987e-02  4.9789093558653769e-02  4.4133259360126749e-02  3.8029393267061735e-02  3.1827708606370374e-02  2.5854652266636313e-02  2.0384368786495331e-02  1.5619911533101506e-02  1.1687596080061834e-02  8.6448673375073785e-03  6.4986986365458584e-03  5.2290125972303666e-03  4.8108438545587315e-03  7.3045329917473308e-03  8.1020926600186196e-03  1.0501261337910973e-02  1.4541313029364320e-02  2.0069949939829249e-02  2.6546329231638029e-02  3.3134507398890560e-02  3.9109889659726546e-02  4.4254129502063214e-02  4.8862629095201518e-02  5.3283961354692190e-02  5.7544533504996213e-02  6.1373035470206165e-02  6.4385868486120545e-02  6.6232616103736264e-02  6.6667502856184724e-02  6.5572812468939340e-02  6.2959211747440333e-02  5.8955319759154336e-02  5.3790568338335579e-02  4.7771957868751359e-02  4.1254824291901034e-02  3.4608996449726030e-02  2.8183778911366877e-02  2.2276941605756610e-02  1.7113283191568240e-02  1.2836819607570184e-02  9.5175310228059664e-03  7.1699311403445459e-03  5.7778152564059524e-03  5.3183836984794118e-03  8.5508070882843405e-03  9.5376852872296435e-03  1.2546819248083181e-02  1.7690998672169285e-02  2.4765140160653867e-02  3.2899452634789765e-02  4.0780210745111761e-02  4.7270371437603528e-02  5.2014352083797503e-02  5.5692979581660577e-02  5.9233028557610756e-02  6.2931115879691871e-02  6.6492010018805101e-02  6.9411729896432586e-02  7.1231157332503084e-02  7.1632666992672123e-02  7.0457287777537653e-02  6.7694384064376695e-02  6.3463959979606036e-02  5.7995831378967008e-02  5.1604815282720179e-02  4.4660675144692283e-02  3.7553217153487140e-02  3.0655466205756838e-02  2.4290115715777622e-02  1.8705283943338390e-02  1.4064329832640504e-02  1.0451287469308099e-02  7.8894581207308752e-03  6.3673139721301328e-03  5.8642529323094965e-03  9.6955607456452042e-03  1.0863834622362874e-02  1.4471065922357878e-02  2.0715641128385059e-02  2.9322215878586702e-02  3.9057499786063966e-02  4.8239566210127531e-02  5.5435675125896089e-02  5.9923388736871981e-02  6.2557735345569160e-02  6.5004102879423320e-02  6.7993729189609359e-02  7.1220834533795005e-02  7.4026402840722996e-02  7.5817652204918526e-02  7.6194581680817122e-02  7.4954000995157921e-02  7.2063475361758902e-02  6.7634111888431034e-02  6.1895339449448250e-02  5.5168443987681746e-02  4.7835831174075222e-02  4.0305296241138017e-02  3.2971660947775129e-02  2.6180927111399886e-02  2.0203390059349690e-02  1.5221132065498955e-02  1.1332078396224833e-02  8.5684526564471716e-03  6.9236177951162497e-03  6.3792615998587562e-03  1.0507801077635289e-02  1.1791679022784501e-02  1.5787735563305570e-02  2.2755166069639250e-02  3.2370686608023239e-02  4.3133344733756594e-02  5.3190512286947260e-02  6.1082461381718120e-02  6.5727216626542254e-02  6.7789046956761911e-02  6.9444709593374371e-02  7.1896988592344363e-02  7.4887283177850025e-02  7.7632102085458357e-02  7.9426472894586111e-02  7.9803970321181320e-02  7.8527604328478523e-02  7.5548934959177125e-02  7.0972609276506088e-02  6.5027747072496728e-02  5.8040452371780980e-02  5.0402818153138899e-02  4.2536764463606977e-02  3.4854591197958980e-02  2.7721339834001268e-02  2.1425734591376706e-02  1.6165684358545786e-02  1.2051077803654872e-02  9.1219999556164406e-03  7.3762579297930436e-03  6.7977281349344701e-03  1.0817828048195652e-02  1.2110450406062340e-02  1.6143629674377637e-02  2.3192112563910117e-02  3.2996342162225190e-02  4.4068969174585929e-02  5.4459744897784032e-02  6.2683022747352504e-02  6.7635517419414010e-02  6.9837596683733072e-02  7.1474834784268623e-02  7.3909226368999048e-02  7.6939750098933515e-02  7.9753989211638412e-02  8.1612161503975836e-02  8.2027751582748304e-02  8.0754301577076498e-02  7.7739062131553016e-02  7.3085051555094885e-02  6.7021962288743644e-02  5.9878976072330545e-02  5.2054152597862093e-02  4.3978314112978818e-02  3.6075075624447471e-02  2.8722104347269666e-02  2.2220607766951180e-02  1.6779428391658802e-02  1.2516885109432286e-02  9.4787324507384640e-03  7.6660981293371787e-03  7.0646296596841044e-03  1.0588893954307722e-02  1.1786521528388445e-02  1.5511546491250063e-02  2.1987869555463065e-02  3.1075869828054017e-02  4.1618884753409795e-02  5.1759177259445559e-02  5.9918899199858960e-02  6.5210544090907749e-02  6.8199342958433801e-02  7.0660673515355252e-02  7.3686054439460802e-02  7.7079061351492631e-02  8.0105688727469274e-02  8.2088642524357033e-02  8.2578481233958750e-02  8.1347928247807191e-02  7.8353105270585074e-02  7.3700701165112376e-02  6.7621917206805021e-02  6.0447028810605222e-02  5.2575771699800024e-02  4.4441717813641222e-02  3.6472367915735791e-02  2.9050099672184648e-02  2.2481086198812530e-02  1.6978751066237328e-02  1.2665110546172441e-02  9.5885293018939978e-03  7.7517858906344965e-03  7.1415838036605894e-03  9.9142179162527971e-03  1.0954936312486374e-02  1.4169364205370037e-02  1.9682147985424975e-02  2.7400899148446223e-02  3.6576073989782076e-02  4.5788053692033641e-02  5.3635088514082378e-02  5.9434114480561726e-02  6.3647535068334107e-02  6.7416780717856506e-02  7.1374588993586299e-02  7.5302105848838882e-02  7.8607773805555309e-02  8.0739274722810381e-02  8.1322173541854850e-02  8.0167648528176719e-02  7.7249584414200267e-02  7.2681711373964134e-02  6.6696736006812862e-02  5.9623449392289203e-02  5.1858430008815286e-02  4.3831227773642865e-02  3.5965069788611442e-02  2.8638317704267779e-02  2.2153771509205462e-02  1.6722337130445530e-02  1.2464392654484633e-02  9.4274233683118904e-03  7.6139147913750847e-03  7.0107425821780102e-03  8.9493467899506643e-03  9.8197100681742238e-03  1.2489423908603916e-02  1.6998054548953059e-02  2.3248857496513568e-02  3.0779303101413857e-02  3.8700370544348703e-02  4.6047347798456116e-02  5.2305123111684913e-02  5.7655899715329854e-02  6.2619550583375830e-02  6.7419937940114000e-02  7.1814865848970025e-02  7.5349601173476083e-02  7.7599395699336007e-02  7.8269433576903885e-02  7.7212849853051727e-02  7.4423176614054051e-02  7.0021407107550615e-02  6.4240208595999562e-02  5.7403444250034907e-02  4.9899149124985706e-02  4.2145706046063970e-02  3.4553668824840511e-02  2.7488529592509810e-02  2.1241344778605158e-02  1.6013444718962780e-02  1.1918318915864685e-02  8.9991819790789084e-03  7.2563601788777788e-03  6.6760402788783842e-03  7.8418861580663076e-03  8.5575662651956839e-03  1.0744285991086809e-02  1.4400453098906012e-02  1.9437059723348228e-02  2.5570262430647521e-02  3.2291506040605496e-02  3.9026293998130575e-02  4.5400231348649511e-02  5.1361186761759103e-02  5.7000725469943940e-02  6.2269388470923559e-02  6.6900703713308043e-02  7.0530635521932283e-02  7.2827476108914477e-02  7.3558410464248589e-02  7.2610868947306742e-02  6.9994572697986535e-02  6.5835309140068923e-02  6.0362660598234891e-02  5.3891227387663151e-02  4.6794638493576006e-02  3.9472854003871710e-02  3.2315588024391398e-02  2.5667134453390538e-02  1.9799155718611391e-02  1.4897140185815332e-02  1.1063181967181137e-02  8.3334406398788245e-03  6.7046387553661626e-03  6.1616316584612212e-03  6.6999551530148383e-03  7.2849294978257120e-03  9.0716458328392729e-03  1.2049844864785947e-02  1.6155884859681030e-02  2.1221279737069301e-02  2.6959215538507639e-02  3.3030512284032441e-02  3.9155127154608969e-02  4.5163442810436986e-02  5.0927145965349578e-02  5.6252275361094582e-02  6.0855539888624736e-02  6.4423167012036084e-02  6.6680527335490639e-02  6.7435913597459554e-02  6.6600676747593138e-02  6.4195305328414831e-02  6.0346476305362308e-02  5.5276600358426554e-02  4.9286012675014874e-02  4.2727827623632322e-02  3.5976559751841566e-02  2.9393635210816959e-02  2.3294944168866214e-02  1.7926470283070556e-02  1.3452998613825824e-02  9.9619797608521757e-03  7.4807233746772778e-03  6.0015768664992116e-03  5.5077850886562814e-03  5.5928556827756102e-03  6.0688081948527791e-03  7.5258298232581799e-03  9.9587472999999125e-03  1.3331916942171481e-02  1.7550648497444050e-02  2.2450212361760036e-02  2.7817804592290087e-02  3.3433467159740500e-02  3.9090544801130792e-02  4.4575491100735408e-02  4.9637861542740976e-02  5.3993099007466412e-02  5.7358389862562108e-02  5.9494528363128685e-02  6.0236716815267932e-02  5.9512187274880529e-02  5.7347137134479871e-02  5.3864878179290400e-02  4.9276100933531110e-02  4.3861615350026160e-02  3.7948061973761361e-02  3.1878163099620570e-02  2.5978821445123538e-02  2.0531952800407809e-02  1.5753420446308529e-02  1.1784246048407313e-02  8.6955355633172582e-03  6.5051250007777377e-03  5.2009888999931461e-03  4.7649024158844108e-03  4.5628057176463543e-03  4.9467375832283949e-03  6.1265891661336693e-03  8.1046666899316985e-03  1.0867218292134523e-02  1.4365076247544037e-02  1.8501492479399344e-02  2.3134099386660032e-02  2.8086555056205414e-02  3.3156728991295611e-02  3.8115334333905869e-02  4.2705531815628375e-02  4.6656958501915084e-02  4.9713189846084603e-02  5.1661635270078478e-02  5.2357515978275475e-02  5.1739178478298432e-02  4.9834650049714928e-02  4.6759938459717314e-02  4.2709572904569275e-02  3.7939850227355527e-02  3.2745648942290533e-02  2.7432736181511708e-02  2.2288930010606341e-02  1.7558610797584175e-02  1.3425180756819893e-02  1.0004772308505482e-02  7.3520186229495306e-03  5.4757862747777932e-03  4.3603875642633447e-03  3.9866462696893845e-03  3.6353126527062960e-03  3.9406050140632790e-03  4.8833061561170425e-03  6.4711940644772096e-03  8.7046030358802276e-03  1.1561426230256721e-02  1.4984349320417905e-02  1.8874545649186298e-02  2.3091700324297366e-02  2.7457002491593194e-02  3.1757689694394367e-02  3.5756354243230488e-02  3.9208320412914374e-02  4.1885228948837089e-02  4.3599303012871682e-02  4.4223483159516137e-02  4.3704894348701402e-02  4.2070730410263948e-02  3.9426462469303793e-02  3.5946651480797211e-02  3.1858940675981585e-02  2.7422392147585236e-02  2.2902326098996496e-02  1.8544942229152008e-02  1.4555716513541952e-02  1.1085359605812495e-02  8.2257914620945689e-03  6.0164008825671226e-03  4.4584794326008254e-03  3.5338942193498626e-03  3.2232904571458023e-03  2.8250857505636110e-03  3.0631021107941740e-03  3.8021377379343522e-03  5.0526432315357531e-03  6.8225576564805981e-03  9.1051592528708578e-03  1.1866958116679276e-02  1.5038754847015105e-02  1.8511359987910012e-02  2.2136065074482816e-02  2.5730016843540596e-02  2.9087329146073180e-02  3.1996009460211076e-02  3.4258578290205420e-02  3.5712779662608322e-02  3.6249013998547672e-02  3.5822237108836141e-02  3.4457168629275219e-02  3.2246451503827801e-02  2.9341949759316165e-02  2.5939879180576633e-02  2.2261149485089893e-02  1.8529169126294313e-02  1.4948176333249257e-02  1.1685517154970819e-02  8.8608587413755418e-03  6.5440380145361824e-03  4.7613948133478400e-03  3.5085721620930063e-03  2.7664390557786632e-03  2.5163241752446134e-03  2.1385714591897454e-03  2.3197286983763056e-03  2.8857525430609631e-03  3.8475127133918482e-03  5.2160251621612159e-03  6.9926820316871321e-03  9.1586773725012630e-03  1.1666046541607140e-02  1.4432184059840264e-02  1.7338999282546834e-02  2.0237389362801436e-02  2.2957236305072112e-02  2.5322189233384536e-02  2.7167250946132787e-02  2.8356419976521472e-02  2.8797717932159780e-02  2.8453581107015440e-02  2.7345404608785356e-02  2.5551764727419390e-02  2.3200478098636543e-02  2.0455278774926290e-02  1.7498591273971791e-02  1.4512598579434049e-02  1.1661342531655659e-02  9.0766765745275459e-03  6.8503279297762159e-03  5.0331487620609260e-03  3.6411285557998645e-03  2.6663352504121621e-03  2.0900397699417307e-03  1.8950430504741567e-03  1.5750020623912589e-03  1.7091800917360721e-03  2.1314119747200154e-03  2.8515628168487386e-03  3.8809124918695423e-03  5.2245153137831816e-03  6.8725353981491464e-03  8.7923968237953246e-03  1.0923458980545416e-02  1.3175552062497492e-02  1.5432187094533936e-02  1.7558565778678113e-02  1.9413628242746953e-02  2.0864489156620335e-02  2.1801074068129776e-02  2.2148752762401074e-02  2.1877174413508373e-02  2.1004129631983840e-02  1.9593934059495909e-02  1.7750485581843382e-02  1.5605801859270780e-02  1.3305494575919542e-02  1.0993200762324603e-02  8.7963087384061601e-03  6.8152133367924113e-03  5.1177298869327622e-03  3.7392768153986450e-03  2.6882574833878522e-03  1.9550583459959931e-03  1.5224897708777424e-03  1.3754181999616434e-03  1.1273138230717954e-03  1.2238081496061303e-03  1.5299330265484130e-03  2.0538522684100027e-03  2.8055842009984343e-03  3.7912276378085229e-03  5.0062210238015978e-03  6.4289856568231938e-03  8.0163352607386992e-03  9.7018400344801251e-03  1.1397921920648363e-02  1.3001846939608236e-02  1.4405041377840886e-02  1.5504462001364962e-02  1.6214303869189768e-02  1.6476246645242058e-02  1.6266693290311968e-02  1.5599932440238677e-02  1.4526744273870665e-02  1.3128595841539395e-02  1.1508193021967103e-02  9.7777212494906899e-03  8.0465264818915267e-03  6.4101433153755296e-03  4.9423715443435642e-03  3.6915245045691706e-03  2.6811341870573518e-03  1.9145118489766477e-03  1.3818618486943456e-03  1.0682897406106510e-03  9.6106302926755383e-04  7.8350584156125448e-04  8.5077662504723785e-04  1.0661832880231135e-03  1.4360128046953351e-03  1.9683814497455797e-03  2.6690221681336308e-03  3.5362698484022880e-03  4.5562009170444168e-03  5.6989644900903875e-03  6.9172515900270915e-03  8.1475643571929414e-03  9.3144831086839960e-03  1.0337557677273049e-02  1.1139901600922580e-02  1.1657187877014273e-02  1.1845624926125415e-02  1.1687639370879056e-02  1.1194352687017545e-02  1.0404432620033799e-02  9.3794527483851541e-03  8.1964373226515001e-03  6.9387310353142169e-03  5.6866303445435419e-03  4.5092626583851120e-03  3.4589575421865833e-03  2.5688487144052891e-03  1.8537894803176264e-03  1.3140240674321603e-03  9.4059259506613251e-04  7.2124942258021299e-04  6.4573934169618870e-04  5.2842218619090933e-04  5.7383396157744597e-04  7.2080101602856929e-04  9.7387665282566585e-04  1.3391904574973025e-03  1.8214793166423165e-03  2.4205045224053711e-03  3.1275088039861526e-03  3.9224513739533895e-03  4.7727247647540742e-03  5.6338752887212466e-03  6.4525235363049917e-03  7.1712636976548651e-03  7.7349037534997925e-03  8.0970975801246316e-03  8.2262916938770515e-03  8.1099890870589414e-03  7.7565966013451327e-03  7.1945158186261411e-03  6.4685925708483812e-03  5.6344842755303862e-03  4.7518624589781618e-03  3.8775682985547522e-03  3.0598286495709375e-03  2.3344065756795798e-03  1.7231491528080167e-03  1.2349054011467845e-03  8.6834242666049429e-04  6.1589260563517194e-04  4.6796671744876478e-04  4.1664795306635676e-04  3.4565406985497308e-04  3.7531512005256878e-04  4.7248124397535404e-04  6.4027169512427963e-04  8.8305015488448775e-04  1.2044013394531996e-03  1.6046656617328715e-03  2.0784645283004068e-03  2.6127193417401448e-03  3.1856607388128710e-03  3.7672144828036634e-03  4.3209339367240186e-03  4.8073577148168784e-03  5.1883675638473813e-03  5.4318807790525525e-03  5.5160954859062887e-03  5.4325459841576421e-03  5.1874122589972513e-03  4.8008256214943004e-03  4.3042647603236256e-03  3.7364773922618352e-03  3.1386257843210234e-03  2.5494833595170120e-03  2.0014718932498108e-03  1.5181291427618215e-03  1.1132822026419665e-03  7.9185210521578119e-04  5.5191778769491848e-04  3.8748797537080506e-04  2.9138975904052442e-04  2.5775923095277745e-04  2.1922335181438031e-04  2.3795950437592247e-04  3.0019058573480233e-04  4.0794460854617985e-04  5.6416902335639830e-04  7.7139588924881773e-04  1.0301050431444445e-03  1.3370627061624093e-03  1.6839657130230457e-03  2.0567264214211328e-03  2.4356693975716337e-03  2.7967725277261235e-03  3.1138900647019237e-03  3.3616836157656146e-03  3.5188111170541096e-03  3.5708304314244180e-03  3.5122909662759208e-03  3.3476146987067926e-03  3.0905826826887893e-03  2.7625008746218027e-03  2.3893664007520361e-03  1.9985391266641394e-03  1.6155022463252666e-03  1.2612509611961242e-03  9.5069162588185300e-04  6.9220597678512478e-04  4.8829581663296570e-04  3.3703207360314427e-04  2.3392785532250194e-04  1.7384592624275770e-04  1.5261530713554965e-04  1.3481799932844104e-04  1.4626591222199669e-04  1.8488271915736561e-04  2.5192350353493779e-04  3.4928617053697314e-04  4.7865812644464265e-04  6.4046600020067315e-04  8.3280105638146599e-04  1.0505297435496903e-03  1.2848067207785513e-03  1.5231716667682444e-03  1.7503253984642734e-03  1.9495547438613044e-03  2.1046343229529497e-03  2.2019114912377007e-03  2.2322118056544073e-03  2.1922085520805603e-03  2.0849848676915742e-03  1.9196649307609145e-03  1.7101698892966607e-03  1.4733245377147003e-03  1.2266630268193107e-03  9.8632754150958842e-04  7.6541299058883224e-04  5.7299578137785562e-04  4.1392771571905723e-04  2.8931894724450082e-04  1.9751526193595328e-04  1.3531740139277764e-04  9.9194880125573319e-05  8.6296224989233463e-05  8.0504806370406741e-05  8.7285530316166620e-05  1.1054177735051398e-04  1.5101836253031173e-04  2.0988721815669086e-04  2.8821837820339744e-04  3.8632742699926142e-04  5.0310381959671544e-04  6.3544919051012250e-04  7.7796198154214441e-04  9.2298474495881454e-04  1.0610786141387581e-03  1.1819104447622002e-03  1.2754472105666922e-03  1.3332716748685619e-03  1.3497859807951266e-03  1.3230716761968018e-03  1.2552296991882419e-03  1.1521218925980368e-03  1.0225547883648952e-03  8.7705848257809175e-04  7.2649121819210578e-04  5.8072507936544860e-04  4.4763519673879