<?xml version="1.0"?>
<VTKFile type="UnstructuredGrid"  version="0.1"  >
<UnstructuredGrid>
<Piece  NumberOfPoints="441" NumberOfCells="800">
<Points>
<DataArray  type="Float64"  NumberOfComponents="3"  format="ascii">-2 -2 0  -1.8 -2 0  -1.6 -2 0  -1.4 -2 0  -1.2 -2 0  -1 -2 0  -0.8 -2 0  -0.6000000000000001 -2 0  -0.3999999999999999 -2 0  -0.2 -2 0  0 -2 0  0.2000000000000002 -2 0  0.3999999999999999 -2 0  0.6000000000000001 -2 0  0.7999999999999998 -2 0  1 -2 0  1.2 -2 0  1.4 -2 0  1.6 -2 0  1.8 -2 0  2 -2 0  -2 -1.8 0  -1.8 -1.8 0  -1.6 -1.8 0  -1.4 -1.8 0  -1.2 -1.8 0  -1 -1.8 0  -0.8 -1.8 0  -0.6000000000000001 -1.8 0  -0.3999999999999999 -1.8 0  -0.2 -1.8 0  0 -1.8 0  0.2000000000000002 -1.8 0  0.3999999999999999 -1.8 0  0.6000000000000001 -1.8 0  0.7999999999999998 -1.8 0  1 -1.8 0  1.2 -1.8 0  1.4 -1.8 0  1.6 -1.8 0  1.8 -1.8 0  2 -1.8 0  -2 -1.6 0  -1.8 -1.6 0  -1.6 -1.6 0  -1.4 -1.6 0  -1.2 -1.6 0  -1 -1.6 0  -0.8 -1.6 0  -0.6000000000000001 -1.6 0  -0.3999999999999999 -1.6 0  -0.2 -1.6 0  0 -1.6 0  0.2000000000000002 -1.6 0  0.3999999999999999 -1.6 0  0.6000000000000001 -1.6 0  0.7999999999999998 -1.6 0  1 -1.6 0  1.2 -1.6 0  1.4 -1.6 0  1.6 -1.6 0  1.8 -1.6 0  2 -1.6 0  -2 -1.4 0  -1.8 -1.4 0  -1.6 -1.4 0  -1.4 -1.4 0  -1.2 -1.4 0  -1 -1.4 0  -0.8 -1.4 0  -0.6000000000000001 -1.4 0  -0.3999999999999999 -1.4 0  -0.2 -1.4 0  0 -1.4 0  0.2000000000000002 -1.4 0  0.3999999999999999 -1.4 0  0.6000000000000001 -1.4 0  0.7999999999999998 -1.4 0  1 -1.4 0  1.2 -1.4 0  1.4 -1.4 0  1.6 -1.4 0  1.8 -1.4 0  2 -1.4 0  -2 -1.2 0  -1.8 -1.2 0  -1.6 -1.2 0  -1.4 -1.2 0  -1.2 -1.2 0  -1 -1.2 0  -0.8 -1.2 0  -0.6000000000000001 -1.2 0  -0.3999999999999999 -1.2 0  -0.2 -1.2 0  0 -1.2 0  0.2000000000000002 -1.2 0  0.3999999999999999 -1.2 0  0.6000000000000001 -1.2 0  0.7999999999999998 -1.2 0  1 -1.2 0  1.2 -1.2 0  1.4 -1.2 0  1.6 -1.2 0  1.8 -1.2 0  2 -1.2 0  -2 -1 0  -1.8 -1 0  -1.6 -1 0  -1.4 -1 0  -1.2 -1 0  -1 -1 0  -0.8 -1 0  -0.6000000000000001 -1 0  -0.3999999999999999 -1 0  -0.2 -1 0  0 -1 0  0.2000000000000002 -1 0  0.3999999999999999 -1 0  0.6000000000000001 -1 0  0.7999999999999998 -1 0  1 -1 0  1.2 -1 0  1.4 -1 0  1.6 -1 0  1.8 -1 0  2 -1 0  -2 -0.8 0  -1.8 -0.8 0  -1.6 -0.8 0  -1.4 -0.8 0  -1.2 -0.8 0  -1 -0.8 0  -0.8 -0.8 0  -0.6000000000000001 -0.8 0  -0.3999999999999999 -0.8 0  -0.2 -0.8 0  0 -0.8 0  0.2000000000000002 -0.8 0  0.3999999999999999 -0.8 0  0.6000000000000001 -0.8 0  0.7999999999999998 -0.8 0  1 -0.8 0  1.2 -0.8 0  1.4 -0.8 0  1.6 -0.8 0  1.8 -0.8 0  2 -0.8 0  -2 -0.6000000000000001 0  -1.8 -0.6000000000000001 0  -1.6 -0.6000000000000001 0  -1.4 -0.6000000000000001 0  -1.2 -0.6000000000000001 0  -1 -0.6000000000000001 0  -0.8 -0.6000000000000001 0  -0.6000000000000001 -0.6000000000000001 0  -0.3999999999999999 -0.6000000000000001 0  -0.2 -0.6000000000000001 0  0 -0.6000000000000001 0  0.2000000000000002 -0.6000000000000001 0  0.3999999999999999 -0.6000000000000001 0  0.6000000000000001 -0.6000000000000001 0  0.7999999999999998 -0.6000000000000001 0  1 -0.6000000000000001 0  1.2 -0.6000000000000001 0  1.4 -0.6000000000000001 0  1.6 -0.6000000000000001 0  1.8 -0.6000000000000001 0  2 -0.6000000000000001 0  -2 -0.3999999999999999 0  -1.8 -0.3999999999999999 0  -1.6 -0.3999999999999999 0  -1.4 -0.3999999999999999 0  -1.2 -0.3999999999999999 0  -1 -0.3999999999999999 0  -0.8 -0.3999999999999999 0  -0.6000000000000001 -0.3999999999999999 0  -0.3999999999999999 -0.3999999999999999 0  -0.2 -0.3999999999999999 0  0 -0.3999999999999999 0  0.2000000000000002 -0.3999999999999999 0  0.3999999999999999 -0.3999999999999999 0  0.6000000000000001 -0.3999999999999999 0  0.7999999999999998 -0.3999999999999999 0  1 -0.3999999999999999 0  1.2 -0.3999999999999999 0  1.4 -0.3999999999999999 0  1.6 -0.3999999999999999 0  1.8 -0.3999999999999999 0  2 -0.3999999999999999 0  -2 -0.2 0  -1.8 -0.2 0  -1.6 -0.2 0  -1.4 -0.2 0  -1.2 -0.2 0  -1 -0.2 0  -0.8 -0.2 0  -0.6000000000000001 -0.2 0  -0.3999999999999999 -0.2 0  -0.2 -0.2 0  0 -0.2 0  0.2000000000000002 -0.2 0  0.3999999999999999 -0.2 0  0.6000000000000001 -0.2 0  0.7999999999999998 -0.2 0  1 -0.2 0  1.2 -0.2 0  1.4 -0.2 0  1.6 -0.2 0  1.8 -0.2 0  2 -0.2 0  -2 0 0  -1.8 0 0  -1.6 0 0  -1.4 0 0  -1.2 0 0  -1 0 0  -0.8 0 0  -0.6000000000000001 0 0  -0.3999999999999999 0 0  -0.2 0 0  0 0 0  0.2000000000000002 0 0  0.3999999999999999 0 0  0.6000000000000001 0 0  0.7999999999999998 0 0  1 0 0  1.2 0 0  1.4 0 0  1.6 0 0  1.8 0 0  2 0 0  -2 0.2000000000000002 0  -1.8 0.2000000000000002 0  -1.6 0.2000000000000002 0  -1.4 0.2000000000000002 0  -1.2 0.2000000000000002 0  -1 0.2000000000000002 0  -0.8 0.2000000000000002 0  -0.6000000000000001 0.2000000000000002 0  -0.3999999999999999 0.2000000000000002 0  -0.2 0.2000000000000002 0  0 0.2000000000000002 0  0.2000000000000002 0.2000000000000002 0  0.3999999999999999 0.2000000000000002 0  0.6000000000000001 0.2000000000000002 0  0.7999999999999998 0.2000000000000002 0  1 0.2000000000000002 0  1.2 0.2000000000000002 0  1.4 0.2000000000000002 0  1.6 0.2000000000000002 0  1.8 0.2000000000000002 0  2 0.2000000000000002 0  -2 0.3999999999999999 0  -1.8 0.3999999999999999 0  -1.6 0.3999999999999999 0  -1.4 0.3999999999999999 0  -1.2 0.3999999999999999 0  -1 0.3999999999999999 0  -0.8 0.3999999999999999 0  -0.6000000000000001 0.3999999999999999 0  -0.3999999999999999 0.3999999999999999 0  -0.2 0.3999999999999999 0  0 0.3999999999999999 0  0.2000000000000002 0.3999999999999999 0  0.3999999999999999 0.3999999999999999 0  0.6000000000000001 0.3999999999999999 0  0.7999999999999998 0.3999999999999999 0  1 0.3999999999999999 0  1.2 0.3999999999999999 0  1.4 0.3999999999999999 0  1.6 0.3999999999999999 0  1.8 0.3999999999999999 0  2 0.3999999999999999 0  -2 0.6000000000000001 0  -1.8 0.6000000000000001 0  -1.6 0.6000000000000001 0  -1.4 0.6000000000000001 0  -1.2 0.6000000000000001 0  -1 0.6000000000000001 0  -0.8 0.6000000000000001 0  -0.6000000000000001 0.6000000000000001 0  -0.3999999999999999 0.6000000000000001 0  -0.2 0.6000000000000001 0  0 0.6000000000000001 0  0.2000000000000002 0.6000000000000001 0  0.3999999999999999 0.6000000000000001 0  0.6000000000000001 0.6000000000000001 0  0.7999999999999998 0.6000000000000001 0  1 0.6000000000000001 0  1.2 0.6000000000000001 0  1.4 0.6000000000000001 0  1.6 0.6000000000000001 0  1.8 0.6000000000000001 0  2 0.6000000000000001 0  -2 0.7999999999999998 0  -1.8 0.7999999999999998 0  -1.6 0.7999999999999998 0  -1.4 0.7999999999999998 0  -1.2 0.7999999999999998 0  -1 0.7999999999999998 0  -0.8 0.7999999999999998 0  -0.6000000000000001 0.7999999999999998 0  -0.3999999999999999 0.7999999999999998 0  -0.2 0.7999999999999998 0  0 0.7999999999999998 0  0.2000000000000002 0.7999999999999998 0  0.3999999999999999 0.7999999999999998 0  0.6000000000000001 0.7999999999999998 0  0.7999999999999998 0.7999999999999998 0  1 0.7999999999999998 0  1.2 0.7999999999999998 0  1.4 0.7999999999999998 0  1.6 0.7999999999999998 0  1.8 0.7999999999999998 0  2 0.7999999999999998 0  -2 1 0  -1.8 1 0  -1.6 1 0  -1.4 1 0  -1.2 1 0  -1 1 0  -0.8 1 0  -0.6000000000000001 1 0  -0.3999999999999999 1 0  -0.2 1 0  0 1 0  0.2000000000000002 1 0  0.3999999999999999 1 0  0.6000000000000001 1 0  0.7999999999999998 1 0  1 1 0  1.2 1 0  1.4 1 0  1.6 1 0  1.8 1 0  2 1 0  -2 1.2 0  -1.8 1.2 0  -1.6 1.2 0  -1.4 1.2 0  -1.2 1.2 0  -1 1.2 0  -0.8 1.2 0  -0.6000000000000001 1.2 0  -0.3999999999999999 1.2 0  -0.2 1.2 0  0 1.2 0  0.2000000000000002 1.2 0  0.3999999999999999 1.2 0  0.6000000000000001 1.2 0  0.7999999999999998 1.2 0  1 1.2 0  1.2 1.2 0  1.4 1.2 0  1.6 1.2 0  1.8 1.2 0  2 1.2 0  -2 1.4 0  -1.8 1.4 0  -1.6 1.4 0  -1.4 1.4 0  -1.2 1.4 0  -1 1.4 0  -0.8 1.4 0  -0.6000000000000001 1.4 0  -0.3999999999999999 1.4 0  -0.2 1.4 0  0 1.4 0  0.2000000000000002 1.4 0  0.3999999999999999 1.4 0  0.6000000000000001 1.4 0  0.7999999999999998 1.4 0  1 1.4 0  1.2 1.4 0  1.4 1.4 0  1.6 1.4 0  1.8 1.4 0  2 1.4 0  -2 1.6 0  -1.8 1.6 0  -1.6 1.6 0  -1.4 1.6 0  -1.2 1.6 0  -1 1.6 0  -0.8 1.6 0  -0.6000000000000001 1.6 0  -0.3999999999999999 1.6 0  -0.2 1.6 0  0 1.6 0  0.2000000000000002 1.6 0  0.3999999999999999 1.6 0  0.6000000000000001 1.6 0  0.7999999999999998 1.6 0  1 1.6 0  1.2 1.6 0  1.4 1.6 0  1.6 1.6 0  1.8 1.6 0  2 1.6 0  -2 1.8 0  -1.8 1.8 0  -1.6 1.8 0  -1.4 1.8 0  -1.2 1.8 0  -1 1.8 0  -0.8 1.8 0  -0.6000000000000001 1.8 0  -0.3999999999999999 1.8 0  -0.2 1.8 0  0 1.8 0  0.2000000000000002 1.8 0  0.3999999999999999 1.8 0  0.6000000000000001 1.8 0  0.7999999999999998 1.8 0  1 1.8 0  1.2 1.8 0  1.4 1.8 0  1.6 1.8 0  1.8 1.8 0  2 1.8 0  -2 2 0  -1.8 2 0  -1.6 2 0  -1.4 2 0  -1.2 2 0  -1 2 0  -0.8 2 0  -0.6000000000000001 2 0  -0.3999999999999999 2 0  -0.2 2 0  0 2 0  0.2000000000000002 2 0  0.3999999999999999 2 0  0.6000000000000001 2 0  0.7999999999999998 2 0  1 2 0  1.2 2 0  1.4 2 0  1.6 2 0  1.8 2 0  2 2 0  </DataArray>
</Points>
<Cells>
[...]
<PointData  Scalars="f_18-1"> 
<DataArray  type="Float64"  Name="f_18-1"  format="ascii">6.5447480136751447e-11  7.6955561304230814e-11  -3.1033365895508376e-10  -3.1781168054438059e-10  1.1566146424229425e-09  1.4030342926686804e-09  -1.5961140839615540e-09  -3.2159488498244999e-09  -1.0733692990161174e-09  6.2335855034883122e-10  3.0157770657812259e-10  -7.2818128232220377e-11  -5.4935995675138956e-11  -3.2378880864305708e-11  -6.8339807790696022e-12  7.7763078403542509e-12  2.9404507334537815e-12  -7.0285340635850215e-14  -1.3983899711596251e-13  1.9488742352328212e-13  1.2426717495254351e-13  7.3150744320832499e-11  -1.2248832093272407e-10  -1.3651769052282086e-10  7.9765468670937971e-10  5.3327635364622343e-10  -2.9132844719828081e-09  -2.8768102717186161e-09  3.7635163495235592e-09  6.4276604509164589e-09  2.1549105256256010e-09  -3.9323162334053569e-10  1.1921732443620768e-10  2.9059685720924268e-10  9.2432811915640663e-11  2.1463954588004593e-11  -1.6127858739431078e-11  -1.1095542336724825e-11  -2.4480307061067532e-13  6.0723090806909555e-14  -4.5788626431536897e-13  -2.9617921855683299e-13  -6.5056048545735097e-11  -1.6075586297291903e-10  5.7435149288629124e-10  6.1339064960480639e-10  -3.8838214145841491e-09  -2.4212392229056390e-09  1.3511459528358180e-08  1.3207547266638017e-08  -1.4123330391578844e-08  -2.3619706247672462e-08  -8.7173817446640610e-09  -1.2534696449642186e-09  -1.6935184625707766e-09  -7.4656997678693080e-10  -5.6521563358174378e-12  6.9978050901195544e-11  5.0784018795658495e-11  2.5647195639508940e-13  6.6768273140461088e-13  3.6854456804351026e-12  9.5705265044808951e-13  -1.9204003513251091e-10  1.8404312386975071e-10  6.9998149505173357e-10  -2.8303549949122935e-09  -2.4357425368007614e-09  1.9014851819429795e-08  1.0418830354966173e-08  -6.3286324035903621e-08  -6.0651626921361610e-08  5.0895366652294432e-08  8.1827021724025015e-08  2.9444203588496099e-08  7.6573163009790909e-09  4.8608555281756030e-09  -2.9354609073776621e-12  -6.7300255517573582e-10  -1.6238335922669298e-10  1.9001908320434575e-11  8.7521895980551363e-12  -3.0140074889406466e-11  -4.3327225302045614e-12  -6.8336208395717429e-11  4.0440368411130641e-10  -7.9782033490606401e-10  -3.0085129015385366e-09  1.3530353661051056e-08  1.0429864172789227e-08  -9.1925171167194109e-08  -5.0879521824812731e-08  2.8901809160085054e-07  2.8739697316905769e-07  -1.5163462070220992e-07  -2.4512218262644290e-07  -7.1000322144133129e-08  -1.4886840681589628e-08  -1.7008434006508780e-09  5.6672300196160498e-09  8.2412333414894893e-10  -4.7605594170675528e-10  -1.3455786583994636e-10  1.6553376433032028e-10  4.1709847502635549e-11  9.6143888605384409e-11  1.2255443865261611e-10  -1.6063308276303932e-09  3.4880403448372151e-09  1.3272625940283508e-08  -6.3283350674083230e-08  -5.0962245046785923e-08  4.4046931125359887e-07  2.8689613331723312e-07  -1.2758358059376916e-06  -1.3872433555180725e-06  2.7606295468018918e-07  5.4263469518896571e-07  4.5385343170215730e-08  -2.6101157187773493e-08  -2.9103104254908622e-08  -9.0916294012372146e-09  5.3179217498791008e-09  1.0653422992448125e-09  -5.7008630902218612e-10  -2.9971462483505524e-10  8.9253833823707990e-11  -1.5212076332745174e-10  -5.3613775124465161e-10  6.3110764135622480e-09  -1.4071994988628088e-08  -6.0766212905507845e-08  2.8900112860586183e-07  2.8739286793409418e-07  -2.0825463201654093e-06  -1.7906087833678076e-06  5.3111724117371500e-06  6.6126796098567724e-06  4.8633127132262240e-07  -3.8606265997343632e-07  4.9435508117391734e-07  1.7806411508530775e-07  4.6827237528725926e-08  -3.1551048127097814e-08  -8.8804420409518603e-09  2.3589455510720772e-09  4.1031357333390460e-10  2.4856638927482362e-11  -1.0995374872457620e-10  3.1161867902198974e-10  2.2373120856624489e-09  -2.3649204515039027e-08  5.0759046578447594e-08  2.8801897135746726e-07  -1.2759854368180524e-06  -1.7936674296200973e-06  9.5731085094645291e-06  1.1648920877859262e-05  -1.9574921134203563e-05  -2.9567978999171075e-05  -6.8747602233642115e-06  -2.8302095710513955e-06  -1.8516403236604153e-06  6.3350928305986787e-08  1.4022845376347720e-07  5.9465487326307118e-08  -2.3490109739292483e-08  1.2165807901165973e-08  5.6688535334483862e-12  -1.7272854727393649e-11  1.5089684101314118e-10  -3.0633574993728760e-10  -8.7828541149844709e-09  8.1876616095783501e-08  -1.5097795934399948e-07  -1.3908188712432292e-06  5.3137054535226530e-06  1.1668776768992233e-05  -4.1205390165984329e-05  -7.5169117874082346e-05  5.1208326349646209e-05  1.1310498879531911e-04  2.6738029041959488e-05  9.6686720678770627e-06  -9.2062914033333506e-07  -1.4763118420548773e-06  -1.9602729127976620e-08  1.5659686502628642e-07  -1.1232493927824230e-07  2.3117633480894060e-12  -4.7507169990921903e-13  -3.6323162559717668e-11  1.3917838087414351e-10  -1.2873707789170165e-09  2.9564953890955776e-08  -2.4523622133066646e-07  2.7292413293582211e-07  6.6341572950387828e-06  -1.9602437384039997e-05  -7.5309249954454290e-05  1.4897010298524019e-04  4.6046350101046167e-04  4.7223068795185604e-05  -2.9791371551842030e-04  -2.7653198713663237e-06  7.3122566641074052e-06  1.4998315701730357e-05  -3.6470714964709983e-06  -2.1155460268537666e-07  3.9972972643250466e-07  -1.3979185965296065e-12  2.6866065441321742e-12  -2.7135966290809811e-11  2.8689694429101233e-10  -1.7026214973833987e-09  7.6999510047262987e-09  -7.1257935993678641e-08  5.4265997452693769e-07  5.0135214120494916e-07  -2.9705436230857763e-05  5.1473573598937858e-05  4.6144461794593914e-04  -2.4821388422062890e-04  -2.4792326033283947e-03  -1.9117483151869525e-03  8.7675850087918654e-05  -3.4146591923689098e-04  -3.1912422684822116e-05  2.7331971011758829e-05  -3.2917057980073444e-06  -5.2196301704776238e-08  -1.0338882131490293e-12  3.5560910587287061e-12  -1.5786583423223199e-11  8.5413741720951998e-11  -7.4663080110659259e-10  4.8720349208173303e-09  -1.4907049278567065e-08  4.5570758107451636e-08  -3.8429621976192934e-07  -6.9447009753019923e-06  1.1403278283782949e-04  4.4773254407802320e-05  -2.4887138100744785e-03  -2.9975665045043824e-03  8.2164659654892780e-03  1.3709086382714572e-02  2.8517792583790075e-03  -6.1053065831309314e-04  -3.1515117878073885e-05  1.5286653056639676e-05  -2.9780760510295809e-06  -4.2015798772180441e-14  3.9294053811785954e-13  -3.7192637212774548e-12  1.6370449105559263e-11  3.5128039470095692e-12  -9.5034970338540390e-12  -1.7219821496376061e-09  -2.6269713127139140e-08  4.9571557830370805e-07  -2.8414276699884742e-06  2.7014693780113226e-05  -3.0473066368828691e-04  -1.9232006906451029e-03  8.2471393593297783e-03  4.9498522956973615e-02  7.0578936751732810e-02  3.0805492720484339e-02  2.8515613045033100e-03  -3.4060331619922027e-04  5.4440204369589361e-06  -1.8314041301724691e-06  1.1449937394394348e-13  -4.3925399245645906e-13  2.9919718299647393e-12  -1.4605472088342856e-11  7.6006644181681787e-11  -7.0910701173931646e-10  5.7118628849979632e-09  -2.8945156873103598e-08  1.7823201170129240e-07  -1.8577023810733540e-06  9.7116886932459395e-06  -3.5265716481336719e-06  9.9906515551547500e-05  1.3774341098027373e-02  7.0571305112555383e-02  1.1835403701567158e-01  7.0579210515347449e-02  1.3708999555556746e-02  8.9129526879967749e-05  -7.3458417120376326e-06  1.9341325205759857e-05  5.0238209587615461e-14  -1.3894637087507584e-13  8.0841384912310715e-13  -6.8723008507890921e-12  4.3400053597074177e-11  -1.7963240068087650e-10  9.7833140883583319e-10  -9.3439435174132994e-09  4.5915163715758557e-08  6.6357622015227438e-08  -9.1259822724022763e-07  7.2945836381214414e-06  -3.4300548964709323e-04  2.8583867721066079e-03  3.0795971399692670e-02  7.0578936423177280e-02  4.9499863490438743e-02  8.2164259016910685e-03  -1.9100512724403490e-03  -3.1031836683338319e-04  5.3472451460648005e-05  -2.0309920426773017e-14  3.1799625696470941e-14  -2.3651583301912759e-13  2.1158055682655130e-12  -1.1842258375197262e-11  4.8065826349543698e-11  -4.1457270764173912e-10  4.6314556947921179e-09  -2.9997074675264259e-08  1.4290037311435389e-07  -1.4913074164007785e-06  1.4994648238253976e-05  -3.1873976548847834e-05  -6.1057524945219591e-04  2.8504538206419101e-03  1.3710114889516213e-02  8.2172070050697474e-03  -2.9981023515033328e-03  -2.4767170747522515e-03  3.1341670936968090e-05  2.2620739514000817e-04  -1.2762045798535765e-14  3.7947681832467596e-14  -1.4145514056834535e-13  6.4322502134088299e-13  -5.5471735241056834e-12  4.5406735502411872e-11  -2.2964517509992338e-10  8.0137373369186916e-10  -5.7990534692893126e-09  5.0863904214962093e-08  -2.5747542806780432e-08  -3.5874836403524050e-06  2.7413525283421476e-05  -3.1820281784278606e-05  -3.4139864203667803e-04  8.7886856227259319e-05  -1.9118096518754163e-03  -2.4798037385048376e-03  -2.4583463467493279e-04  4.4735331036497281e-04  1.0241988118989590e-04  8.7384732067839590e-16  -1.3579473283488571e-15  1.5242786261768629e-14  -2.0539467470440546e-13  2.3010335353801420e-12  -1.6581024996229888e-11  7.5453546244553506e-11  -3.3749712568692478e-10  3.6049986368673963e-09  -3.6963840378357297e-08  2.0014496450919640e-07  -2.0372448215085107e-07  -3.5872409132693787e-06  1.4972886760579698e-05  7.2943504595480938e-06  -2.7748730417358262e-06  -2.9788479550828094e-04  4.7106693703800592e-05  4.6117463714796906e-04  1.4822030022271834e-04  -1.5033477569403441e-04  -2.7106380832238997e-16  5.8962261211967510e-16  1.8515507452675329e-15  -5.8905341613092028e-14  5.0855608059365093e-13  -3.8301040257354443e-12  2.9924811672183442e-11  -1.7009633568350665e-10  1.8618714938357190e-10  6.2732826400935221e-09  -5.6191116981114180e-08  1.9830531807134002e-07  -2.5760377788379183e-08  -1.4801662977549571e-06  -9.0120704375562388e-07  9.6668026811714524e-06  2.6676946975883506e-05  1.1300436207441756e-04  5.0750987306296702e-05  -6.9169439089526933e-05  -8.2353251417583329e-05  -6.3439345464059449e-16  2.1773042249522255e-15  -1.6015356432024020e-14  9.4695480848403542e-14  -3.8310014073777044e-13  1.2211947290997449e-12  -7.3526039402615395e-12  6.6856828951332635e-11  -3.7601666703588168e-10  6.5947920461733121e-10  5.2604540949495069e-09  -3.6293712080436950e-08  5.8077090532408151e-08  1.3671952954411444e-07  2.6202409880173905e-08  -1.9277603613619008e-06  -2.8054456091338380e-06  -6.5871295875727813e-06  -2.9782296481225550e-05  -1.9360611182812985e-05  2.2169460935126501e-05  -1.3263248059209288e-16  1.1580973007464974e-16  9.3087474015145618e-16  4.7900086298725930e-16  -5.4435788194971227e-14  1.2535365893809557e-13  4.0686202578658311e-12  -5.1520805769563133e-11  3.0976379734219558e-10  -9.6368666721638965e-10  4.1022111266724486e-10  7.2914325146486385e-09  -1.1632919628684569e-08  -5.9978009997277536e-08  9.2065863424647003e-08  3.5558116084488888e-07  9.8742972097703481e-07  -7.6680562357560862e-07  1.0800543346206092e-06  1.1562715571188263e-05  1.6528808813453433e-05  </DataArray> 
</PointData> 
</Piece>
</UnstructuredGrid>
</VTKFile>