<?xml version="1.0"?>
<VTKFile type="UnstructuredGrid"  version="0.1"  >
<UnstructuredGrid>
<Piece  NumberOfPoints="961" NumberOfCells="1800">
<Points>
<DataArray  type="Float64"  NumberOfComponents="3"  format="ascii">0 0 0  0.03333333333333333 0 0  0.06666666666666667 0 0  0.1 0 0  0.1333333333333333 0 0  0.1666666666666667 0 0  0.2 0 0  0.2333333333333333 0 0  0.2666666666666667 0 0  0.3 0 0  0.3333333333333333 0 0  0.3666666666666666 0 0  0.4 0 0  0.4333333333333333 0 0  0.4666666666666667 0 0  0.5 0 0  0.5333333333333333 0 0  0.5666666666666667 0 0  0.6 0 0  0.6333333333333333 0 0  0.6666666666666666 0 0  0.7 0 0  0.7333333333333333 0 0  0.7666666666666667 0 0  0.8 0 0  0.8333333333333334 0 0  0.8666666666666667 0 0  0.9 0 0  0.9333333333333333 0 0  0.9666666666666667 0 0  1 0 0  0 0.03333333333333333 0  0.03333333333333333 0.03333333333333333 0  0.06666666666666667 0.03333333333333333 0  0.1 0.03333333333333333 0  0.1333333333333333 0.03333333333333333 0  0.1666666666666667 0.03333333333333333 0  0.2 0.03333333333333333 0  0.2333333333333333 0.03333333333333333 0  0.2666666666666667 0.03333333333333333 0  0.3 0.03333333333333333 0  0.3333333333333333 0.03333333333333333 0  0.3666666666666666 0.03333333333333333 0  0.4 0.03333333333333333 0  0.4333333333333333 0.03333333333333333 0  0.4666666666666667 0.03333333333333333 0  0.5 0.03333333333333333 0  0.5333333333333333 0.03333333333333333 0  0.5666666666666667 0.03333333333333333 0  0.6 0.03333333333333333 0  0.6333333333333333 0.03333333333333333 0  0.6666666666666666 0.03333333333333333 0  0.7 0.03333333333333333 0  0.7333333333333333 0.03333333333333333 0  0.7666666666666667 0.03333333333333333 0  0.8 0.03333333333333333 0  0.8333333333333334 0.03333333333333333 0  0.8666666666666667 0.03333333333333333 0  0.9 0.03333333333333333 0  0.9333333333333333 0.03333333333333333 0  0.9666666666666667 0.03333333333333333 0  1 0.03333333333333333 0  0 0.06666666666666667 0  0.03333333333333333 0.06666666666666667 0  0.06666666666666667 0.06666666666666667 0  0.1 0.06666666666666667 0  0.1333333333333333 0.06666666666666667 0  0.1666666666666667 0.06666666666666667 0  0.2 0.06666666666666667 0  0.2333333333333333 0.06666666666666667 0  0.2666666666666667 0.06666666666666667 0  0.3 0.06666666666666667 0  0.3333333333333333 0.06666666666666667 0  0.3666666666666666 0.06666666666666667 0  0.4 0.06666666666666667 0  0.4333333333333333 0.06666666666666667 0  0.4666666666666667 0.06666666666666667 0  0.5 0.06666666666666667 0  0.5333333333333333 0.06666666666666667 0  0.5666666666666667 0.06666666666666667 0  0.6 0.06666666666666667 0  0.6333333333333333 0.06666666666666667 0  0.6666666666666666 0.06666666666666667 0  0.7 0.06666666666666667 0  0.7333333333333333 0.06666666666666667 0  0.7666666666666667 0.06666666666666667 0  0.8 0.06666666666666667 0  0.8333333333333334 0.06666666666666667 0  0.8666666666666667 0.06666666666666667 0  0.9 0.06666666666666667 0  0.9333333333333333 0.06666666666666667 0  0.9666666666666667 0.06666666666666667 0  1 0.06666666666666667 0  0 0.1 0  0.03333333333333333 0.1 0  0.06666666666666667 0.1 0  0.1 0.1 0  0.1333333333333333 0.1 0  0.1666666666666667 0.1 0  0.2 0.1 0  0.2333333333333333 0.1 0  0.2666666666666667 0.1 0  0.3 0.1 0  0.3333333333333333 0.1 0  0.3666666666666666 0.1 0  0.4 0.1 0  0.4333333333333333 0.1 0  0.4666666666666667 0.1 0  0.5 0.1 0  0.5333333333333333 0.1 0  0.5666666666666667 0.1 0  0.6 0.1 0  0.6333333333333333 0.1 0  0.6666666666666666 0.1 0  0.7 0.1 0  0.7333333333333333 0.1 0  0.7666666666666667 0.1 0  0.8 0.1 0  0.8333333333333334 0.1 0  0.8666666666666667 0.1 0  0.9 0.1 0  0.9333333333333333 0.1 0  0.9666666666666667 0.1 0  1 0.1 0  0 0.1333333333333333 0  0.03333333333333333 0.1333333333333333 0  0.06666666666666667 0.1333333333333333 0  0.1 0.1333333333333333 0  0.1333333333333333 0.1333333333333333 0  0.1666666666666667 0.1333333333333333 0  0.2 0.1333333333333333 0  0.2333333333333333 0.1333333333333333 0  0.2666666666666667 0.1333333333333333 0  0.3 0.1333333333333333 0  0.3333333333333333 0.1333333333333333 0  0.3666666666666666 0.1333333333333333 0  0.4 0.1333333333333333 0  0.4333333333333333 0.1333333333333333 0  0.4666666666666667 0.1333333333333333 0  0.5 0.1333333333333333 0  0.5333333333333333 0.1333333333333333 0  0.5666666666666667 0.1333333333333333 0  0.6 0.1333333333333333 0  0.6333333333333333 0.1333333333333333 0  0.6666666666666666 0.1333333333333333 0  0.7 0.1333333333333333 0  0.7333333333333333 0.1333333333333333 0  0.7666666666666667 0.1333333333333333 0  0.8 0.1333333333333333 0  0.8333333333333334 0.1333333333333333 0  0.8666666666666667 0.1333333333333333 0  0.9 0.1333333333333333 0  0.9333333333333333 0.1333333333333333 0  0.9666666666666667 0.1333333333333333 0  1 0.1333333333333333 0  0 0.1666666666666667 0  0.03333333333333333 0.1666666666666667 0  0.06666666666666667 0.1666666666666667 0  0.1 0.1666666666666667 0  0.1333333333333333 0.1666666666666667 0  0.1666666666666667 0.1666666666666667 0  0.2 0.1666666666666667 0  0.2333333333333333 0.1666666666666667 0  0.2666666666666667 0.1666666666666667 0  0.3 0.1666666666666667 0  0.3333333333333333 0.1666666666666667 0  0.3666666666666666 0.1666666666666667 0  0.4 0.1666666666666667 0  0.4333333333333333 0.1666666666666667 0  0.4666666666666667 0.1666666666666667 0  0.5 0.1666666666666667 0  0.5333333333333333 0.1666666666666667 0  0.5666666666666667 0.1666666666666667 0  0.6 0.1666666666666667 0  0.6333333333333333 0.1666666666666667 0  0.6666666666666666 0.1666666666666667 0  0.7 0.1666666666666667 0  0.7333333333333333 0.1666666666666667 0  0.7666666666666667 0.1666666666666667 0  0.8 0.1666666666666667 0  0.8333333333333334 0.1666666666666667 0  0.8666666666666667 0.1666666666666667 0  0.9 0.1666666666666667 0  0.9333333333333333 0.1666666666666667 0  0.9666666666666667 0.1666666666666667 0  1 0.1666666666666667 0  0 0.2 0  0.03333333333333333 0.2 0  0.06666666666666667 0.2 0  0.1 0.2 0  0.1333333333333333 0.2 0  0.1666666666666667 0.2 0  0.2 0.2 0  0.2333333333333333 0.2 0  0.2666666666666667 0.2 0  0.3 0.2 0  0.3333333333333333 0.2 0  0.3666666666666666 0.2 0  0.4 0.2 0  0.4333333333333333 0.2 0  0.4666666666666667 0.2 0  0.5 0.2 0  0.5333333333333333 0.2 0  0.5666666666666667 0.2 0  0.6 0.2 0  0.6333333333333333 0.2 0  0.6666666666666666 0.2 0  0.7 0.2 0  0.7333333333333333 0.2 0  0.7666666666666667 0.2 0  0.8 0.2 0  0.8333333333333334 0.2 0  0.8666666666666667 0.2 0  0.9 0.2 0  0.9333333333333333 0.2 0  0.9666666666666667 0.2 0  1 0.2 0  0 0.2333333333333333 0  0.03333333333333333 0.2333333333333333 0  0.06666666666666667 0.2333333333333333 0  0.1 0.2333333333333333 0  0.1333333333333333 0.2333333333333333 0  0.1666666666666667 0.2333333333333333 0  0.2 0.2333333333333333 0  0.2333333333333333 0.2333333333333333 0  0.2666666666666667 0.2333333333333333 0  0.3 0.2333333333333333 0  0.3333333333333333 0.2333333333333333 0  0.3666666666666666 0.2333333333333333 0  0.4 0.2333333333333333 0  0.4333333333333333 0.2333333333333333 0  0.4666666666666667 0.2333333333333333 0  0.5 0.2333333333333333 0  0.5333333333333333 0.2333333333333333 0  0.5666666666666667 0.2333333333333333 0  0.6 0.2333333333333333 0  0.6333333333333333 0.2333333333333333 0  0.6666666666666666 0.2333333333333333 0  0.7 0.2333333333333333 0  0.7333333333333333 0.2333333333333333 0  0.7666666666666667 0.2333333333333333 0  0.8 0.2333333333333333 0  0.8333333333333334 0.2333333333333333 0  0.8666666666666667 0.2333333333333333 0  0.9 0.2333333333333333 0  0.9333333333333333 0.2333333333333333 0  0.9666666666666667 0.2333333333333333 0  1 0.2333333333333333 0  0 0.2666666666666667 0  0.03333333333333333 0.2666666666666667 0  0.06666666666666667 0.2666666666666667 0  0.1 0.2666666666666667 0  0.1333333333333333 0.2666666666666667 0  0.1666666666666667 0.2666666666666667 0  0.2 0.2666666666666667 0  0.2333333333333333 0.2666666666666667 0  0.2666666666666667 0.2666666666666667 0  0.3 0.2666666666666667 0  0.3333333333333333 0.2666666666666667 0  0.3666666666666666 0.2666666666666667 0  0.4 0.2666666666666667 0  0.4333333333333333 0.2666666666666667 0  0.4666666666666667 0.2666666666666667 0  0.5 0.2666666666666667 0  0.5333333333333333 0.2666666666666667 0  0.5666666666666667 0.2666666666666667 0  0.6 0.2666666666666667 0  0.6333333333333333 0.2666666666666667 0  0.6666666666666666 0.2666666666666667 0  0.7 0.2666666666666667 0  0.7333333333333333 0.2666666666666667 0  0.7666666666666667 0.2666666666666667 0  0.8 0.2666666666666667 0  0.8333333333333334 0.2666666666666667 0  0.8666666666666667 0.2666666666666667 0  0.9 0.2666666666666667 0  0.9333333333333333 0.2666666666666667 0  0.9666666666666667 0.2666666666666667 0  1 0.2666666666666667 0  0 0.3 0  0.03333333333333333 0.3 0  0.06666666666666667 0.3 0  0.1 0.3 0  0.1333333333333333 0.3 0  0.1666666666666667 0.3 0  0.2 0.3 0  0.2333333333333333 0.3 0  0.2666666666666667 0.3 0  0.3 0.3 0  0.3333333333333333 0.3 0  0.3666666666666666 0.3 0  0.4 0.3 0  0.4333333333333333 0.3 0  0.4666666666666667 0.3 0  0.5 0.3 0  0.5333333333333333 0.3 0  0.5666666666666667 0.3 0  0.6 0.3 0  0.6333333333333333 0.3 0  0.6666666666666666 0.3 0  0.7 0.3 0  0.7333333333333333 0.3 0  0.7666666666666667 0.3 0  0.8 0.3 0  0.8333333333333334 0.3 0  0.8666666666666667 0.3 0  0.9 0.3 0  0.9333333333333333 0.3 0  0.9666666666666667 0.3 0  1 0.3 0  0 0.3333333333333333 0  0.03333333333333333 0.3333333333333333 0  0.06666666666666667 0.3333333333333333 0  0.1 0.3333333333333333 0  0.1333333333333333 0.3333333333333333 0  0.1666666666666667 0.3333333333333333 0  0.2 0.3333333333333333 0  0.2333333333333333 0.3333333333333333 0  0.2666666666666667 0.3333333333333333 0  0.3 0.3333333333333333 0  0.3333333333333333 0.3333333333333333 0  0.3666666666666666 0.3333333333333333 0  0.4 0.3333333333333333 0  0.4333333333333333 0.3333333333333333 0  0.4666666666666667 0.3333333333333333 0  0.5 0.3333333333333333 0  0.5333333333333333 0.33333333333333
[...]
<PointData  Scalars="f_18-1"> 
<DataArray  type="Float64"  Name="f_18-1"  format="ascii">-5.5000522371690928e-11  -4.0625690443712682e-11  7.1039692575987481e-11  3.4250226072914817e-10  4.8428817766155188e-10  -2.7583335946938214e-10  -2.4374906739952603e-09  -4.5230323098328686e-09  -2.3263670636566510e-09  7.9992396637664928e-09  2.3347563888905020e-08  2.9993655155904338e-08  1.0602261972032387e-08  -3.9348888133640042e-08  -9.9356182737638647e-08  -1.3037332630081061e-07  -9.9252022682777332e-08  -3.0913006253942385e-09  1.2607720479786311e-07  2.3980346969947711e-07  3.0037962499652532e-07  2.9772188629362133e-07  2.4768702371991651e-07  1.7766631484594970e-07  1.1145652843987394e-07  6.1647204244271552e-08  3.0211405669994715e-08  1.3177200445121093e-08  5.0807144082532807e-09  1.4962152619500347e-09  1.1937876345366821e-09  -3.9299987823009381e-11  2.6336993667837026e-11  1.9335320094596475e-10  3.1437579509091210e-10  -1.6978842059863664e-10  -1.8304731017801801e-09  -3.7248869403165703e-09  -1.9235494280147076e-09  8.5170521822685576e-09  2.6039533902671074e-08  3.4695098300398314e-08  8.0388995182786429e-09  -6.8529024063764493e-08  -1.7007135728244190e-07  -2.2716352693154945e-07  -1.5989768784203894e-07  6.7019821857924203e-08  4.0964159277580903e-07  7.5991189961385472e-07  1.0015886267271751e-06  1.0681914234946286e-06  9.6681145023563528e-07  7.5994537136749325e-07  5.2541033618392748e-07  3.2190536497951252e-07  1.7554301807478683e-07  8.5432932902477924e-08  3.7171364042283626e-08  1.4315871685412244e-08  4.4646490113354850e-09  3.0890874565144433e-09  6.9203309455360983e-11  1.8889667136162104e-10  2.9838580222182092e-10  -3.1145205290481277e-10  -2.4370017887000911e-09  -4.8588674166401043e-09  -1.4809588936607282e-09  1.6692521504222212e-08  4.8205921638695062e-08  6.1422167264453721e-08  -6.2598544648536494e-09  -2.0183594947809669e-07  -4.7314487354460201e-07  -6.1749464801586258e-07  -3.4178977339470630e-07  5.6476244910332852e-07  2.0536061754011236e-06  3.7745870324607002e-06  5.2183414315453619e-06  5.9581066611098958e-06  5.8388208807408000e-06  5.0092744903845852e-06  3.8051833418693786e-06  2.5768585879001975e-06  1.5621491695780564e-06  8.4983477162710881e-07  4.1545517249782186e-07  1.8254965560224172e-07  7.1436314482370539e-08  2.3984858671910438e-08  1.6144663432714969e-08  3.1814694537647572e-10  2.9230948351954629e-10  -3.1642386711447391e-10  -2.6360507053690892e-09  -5.5796644917855174e-09  -1.2096741368686502e-09  2.4936403258152354e-08  7.4486816539815478e-08  9.5688823477498622e-08  -3.8623525048071912e-08  -4.5703538414805019e-07  -1.0844889437636895e-06  -1.4199235505676159e-06  -5.4301510761628570e-07  2.4838608461825916e-06  7.9686948708771592e-06  1.5135392614170660e-05  2.2249754201113885e-05  2.7325780325258379e-05  2.9004855580340400e-05  2.7096350850484237e-05  2.2517436987942889e-05  1.6753878199383515e-05  1.1205363323418906e-05  6.7526123113816305e-06  3.6711383835682671e-06  1.8014785216109324e-06  7.9735893380289055e-07  3.1591836667015790e-07  1.1142611379722200e-07  7.3826190037562301e-08  4.2362824502443347e-10  -1.9172344774887509e-10  -2.3610761034657617e-09  -5.4278525756161234e-09  -8.8513854078582263e-10  3.0370981594738147e-08  9.5804572233720437e-08  1.2575114009438200e-07  -9.3108837338539674e-08  -8.3727177004088405e-07  -2.0513375655919045e-06  -2.7080672659294697e-06  -4.2639476940437319e-07  7.9648980630057649e-06  2.4746731259934025e-05  4.9348774495895235e-05  7.7521099546563082e-05  1.0249819333312325e-04  1.1769070187465878e-04  1.1941593848332395e-04  1.0819788349819101e-04  8.8105889198727261e-05  6.4732173831595592e-05  4.3008269638818379e-05  2.5871059991015360e-05  1.4096104974469989e-05  6.9559066682058686e-06  3.1049962980132017e-06  1.2467619209627148e-06  4.5777136329915681e-07  3.0038862762432771e-07  -3.0689451375264024e-10  -1.7332840496813021e-09  -4.4949437688915621e-09  -7.5460908191118269e-10  3.0341740900331798e-08  1.0311040239473137e-07  1.4080425572183869e-07  -1.5211510483443030e-07  -1.2521665982338237e-06  -3.2164770970049237e-06  -4.3068463759808660e-06  5.4176265852371603e-07  1.9777320215274358e-05  6.2271868671594103e-05  1.3180720568388337e-04  2.2213940324732507e-04  3.1646529321708385e-04  3.9263113045208024e-04  4.3165513687329848e-04  4.2506733273464604e-04  3.7745940048612735e-04  3.0348860322438600e-04  2.2144407985243595e-04  1.4679337305595561e-04  8.8430479089099303e-05  4.8401897098384591e-05  2.4056040782241501e-05  1.0840664834619082e-05  4.4136575558393445e-06  1.6762572578903121e-06  1.0938061613452278e-06  -2.2417410890081594e-09  -3.3238517102880973e-09  -8.2740733191930825e-10  2.4865370466707981e-08  9.3098471162473286e-08  1.3577305711099666e-07  -1.8455872118942952e-07  -1.5337570305351002e-06  -4.1906340124833673e-06  -5.7443506700714544e-06  2.6419183919458054e-06  3.8954175557644356e-05  1.2772386079990241e-04  2.8945037378694797e-04  5.2547648959026230e-04  8.0775498869105529e-04  1.0822597809743372e-03  1.2865117362829380e-03  1.3726174762089933e-03  1.3243477703095172e-03  1.1608524315134044e-03  9.2676869927094585e-04  6.7460285272255159e-04  4.4777156949691959e-04  2.7089240116205844e-04  1.4925521624549730e-04  7.4818498564766227e-05  3.4067843996471335e-05  1.4067015192354210e-05  5.4999717227953271e-06  3.5790778829185778e-06  -3.9340013371532757e-09  -1.2968565464411037e-09  1.6624528005140828e-08  7.0667619644287659e-08  1.1389791466021456e-07  -1.6992829214842980e-07  -1.5402726446852602e-06  -4.5475817700356279e-06  -6.4821442422721004e-06  5.2658357873083530e-06  6.1496590788154504e-05  2.1396218865811454e-04  5.2299054286913797e-04  1.0271798798360352e-03  1.7078897283355743e-03  2.4726378938906704e-03  3.1741785494130634e-03  3.6590904110172951e-03  3.8213818704384240e-03  3.6364288207483965e-03  3.1634213032521942e-03  2.5191536485918756e-03  1.8364286179378541e-03  1.2245147805312021e-03  7.4592389641758231e-04  4.1454607037709896e-04  2.0988371718425942e-04  9.6647323144754497e-05  4.0477606894752551e-05  1.6234263815204292e-05  1.0557627056820164e-05  -1.6111669710310894e-09  8.5854894035805118e-09  4.5036705914841816e-08  8.3526749577382146e-08  -1.1755609702757573e-07  -1.2675442260928129e-06  -4.1219742529250429e-06  -6.2696353949990884e-06  6.9436395271322233e-06  7.8075983413740537e-05  2.9265035146579650e-04  7.7641732532917197e-04  1.6567369115988572e-03  2.9894541218212249e-03  4.6868293498751800e-03  6.5000939375415758e-03  8.0827684796035935e-03  9.1055867820523367e-03  9.3636642828770836e-03  8.8320811700218910e-03  7.6589854046045141e-03  6.1083001170522296e-03  4.4757478831989198e-03  3.0076666145087633e-03  1.8497696537097734e-03  1.0390980345304510e-03  5.3215958864060115e-04  2.4804345395479415e-04  1.0538491362059951e-04  4.3237552727196064e-05  2.8144607546894192e-05  7.9733718263101030e-09  2.4285150865754066e-08  5.3267288360228345e-08  -5.8160787381208497e-08  -8.5319757053156634e-07  -3.1285764007729819e-06  -5.2692129690102578e-06  6.4912798537165777e-06  7.9671991268364271e-05  3.2653217804799262e-04  9.4555836816189788e-04  2.1991289396418000e-03  4.3191284389263755e-03  7.3556026481767867e-03  1.1049135485574896e-02  1.4832681847804946e-02  1.7994964362838463e-02  1.9917286824149200e-02  2.0256632678763205e-02  1.9013870627327085e-02  1.6499039600357732e-02  1.3227307052401714e-02  9.7765247491366659e-03  6.6425811138834398e-03  4.1362411795976663e-03  2.3539006069313011e-03  1.2214289809941137e-03  5.7685976543852722e-04  2.4867256597889609e-04  1.0414586698505023e-04  6.7932455885038581e-05  2.1793418355149258e-08  3.0751883087452733e-08  -1.6962901374541339e-08  -4.6803698877901904e-07  -1.9898734624803726e-06  -3.8697091716083957e-06  4.2280561586637712e-06  6.5167824936338838e-05  2.9725199628614766e-04  9.4557882373297146e-04  2.4024760497093588e-03  5.1408874254085654e-03  9.5258447977462028e-03  1.5544061534052061e-02  2.2602201856344137e-02  2.9584594636014965e-02  3.5204788554003955e-02  3.8440089058047341e-02  3.8798642926708017e-02  3.6359454948193190e-02  3.1674844498022534e-02  2.5612901211664586e-02  1.9160581916430178e-02  1.3205283063318153e-02  8.3491786368111252e-03  4.8249499095136660e-03  2.5411122605097109e-03  1.2173335161424440e-03  5.3256066702960317e-04  2.2727712173832012e-04  1.4867719945645325e-04  2.7316178842678803e-08  3.6421699460211682e-09  -2.0740672326877242e-07  -1.0580707096503602e-06  -2.4624659070240505e-06  1.6860471512613248e-06  4.2544233728292842e-05  2.2098746607875574e-04  7.7981303764706024e-04  2.1733258740031522e-03  5.0676551767126540e-03  1.0200838362510029e-02  1.8072358996719880e-02  2.8524824559835769e-02  4.0446665591594426e-02  5.1919957896357859e-02  6.0869301225675070e-02  6.5789744499965067e-02  6.6084800631222115e-02  6.1991720448194350e-02  5.4362838163315962e-02  4.4463892339821148e-02  3.3765225537637403e-02  2.3672984968404313e-02  1.5238121046184843e-02  8.9622591273838103e-03  4.7986945334269138e-03  2.3341619806854321e-03  1.0364756418608063e-03  4.5003443537612625e-04  2.9538892332155354e-04  8.3187093079649749e-09  -7.0898322751164720e-08  -4.6709069395544460e-07  -1.3327148392521032e-06  1.0916691118618438e-07  2.2024068535179974e-05  1.3414839603609148e-04  5.3239394381201155e-04  1.6425565830859360e-03  4.1927907152599520e-03  9.1632764172179422e-03  1.7554521574969936e-02  2.9964329224255883e-02  4.6024461162334260e-02  6.3976931791841066e-02  8.0909933581235161e-02  9.3799981329773699e-02  1.0064117829457769e-01  1.0083183077366648e-01  9.4862918381297290e-02  8.3897677849543398e-02  6.9545729233201126e-02  5.3722004562736896e-02  3.8398003641450226e-02  2.5214705936877371e-02  1.5119493964127539e-02  8.2410249458190130e-03  4.0730759890436653e-03  1.8356158658516151e-03  8.0962534981089056e-04  5.3325390638814198e-04  -4.0506199231161630e-08  -1.7049855343925275e-07  -6.0123373582852352e-07  -3.8064323372223358e-07  8.9400762924610952e-06  6.6324100119078213e-05  3.0056827273293441e-04  1.0398654075993083e-03  2.9407300735331131e-03  7.0355034621948954e-03  1.4596044622132830e-02  2.6810589981268410e-02  4.4298070882866365e-02  6.6441281691262760e-02  9.0814696075128251e-02  1.1346970510163239e-01  1.3040598326310637e-01  1.3917480180460176e-01  1.3929214540028634e-01  1.3157996338089759e-01  1.1746941669581189e-01  9.8769485428546924e-02  7.7678510883459700e-02  5.6654876483043383e-02  3.7989362830734896e-02  2.3243656185467740e-02  1.2904134240312297e-02  6.4812282961349719e-03  2.9628029480343802e-03  1.3249942976708703e-03  8.7539795593027361e-04  -1.0085671236336344e-07  -2.2851082618082989e-07  -3.1568410373604382e-07  2.7810826209759704e-06  2.6586173152099812e-05  1.3955790478528896e-04  5.4752556837594731e-04  1.7392744316975864e-03  4.6298783940377309e-03  1.0553991733620222e-02  2.1011342632846507e-02  3.7255030971335951e-02  5.9796979590189363e-02  8.7709047996526651e-02  1.1794416813610920e-01  1.4565896058722475e-01  1.6606268588586862e-01  1.7643674307948534e-01  1.7652372183230755e-01  1.6748631936402214e-01  1.5092665135788824e-01  1.2866852337010343e-01  1.0296964639966238e-01  7.6592044616376725e-02  5.2416952671658155e-02  3.2709230392077043e-02  1.8485818019404052e-02  9.4279024687648656e-03  4.3659707315225520e-03  1.9749567157872367e-03  1.3076169560945130e-03  -1.3412875830005503e-07  -1.6204470777349531e-07  6.2523742136156900e-07  8.5829862062675141e-06  5.2969097925673505e-05  2.3731457885213530e-04  8.5379466676562780e-04  2.5632745412352007e-03  6.5464533954592867e-03  1.4428128267062119e-02  2.7879582808773135e-02  4.8093608227233194e-02  7.5292088438953339e-02  1.0808533871713054e-01  1.4283900000761526e-01  1.7411203875627915e-01  1.9674855387971091e-01  2.0806316851812945e-01  2.0809271184025882e-01  1.9824912271184186e-01  1.8016043138047941e-01  1.5549883918793506e-01  1.2638462627787436e-01  9.5674822931222842e-02  6.6687417744534072e-02  4.2358321473344306e-02  2.4323676079586739e-02  1.2572332695972355e-02  5.8846073119102962e-03  2.6839591234908825e-03  1.7779388247421127e-03  -1.0413564143183427e-07  7.2737662969663920e-08  2.2055469660821810e-06  1.6345164031758151e-05  8.4067954673830650e-05  3.4335617778680412e-04  1.1676394716971373e-03  3.3767102641871125e-03  8.3982818936411668e-03  1.8133132957056205e-02  3.4404772172528464e-02  5.8263400172805138e-02  8.9449165017612992e-02  1.2590389437930477e-01  1.6342193490534901e-01  1.9634498636876124e-01  2.1969819842908780e-01  2.3116596124094738e-01  2.3107340133516127e-01  2.2090502049829572e-01  2.0215492664673951e-01  1.7624012532771061e-01  1.4504096754346651e-01  1.1136051604604680e-01  7.8774983818361177e-02  5.0753928085648485e-02  2.9515431339141959e-02  1.5412142724534181e-02  7.2667283501800604e-03  3.3279461576635953e-03  2.2002189361878793e-03  -4.3658217170120474e-09  4.3678102548565966e-07  4.0736355052486048e-06  2.4241248984342303e-05  1.1250797495272744e-04  4.3281801730336525e-04  1.4171506958517450e-03  3.9995452099833451e-03  9.7951254483104148e-03  2.0938985005713968e-02  3.9407598896753784e-02  6.6104587430310821e-02  1.0020386344513048e-01  1.3887053747613284e-01  1.7740288270295568e-01  2.1028457838290315e-01  2.3315144566389354e-01  2.4424351664849386e-01  2.4406954013125781e-01  2.3399210282575417e-01  2.1525722983677745e-01  1.8901210060410334e-01  1.5690762998725563e-01  1.2164451693392671e-01  8.6915882198820640e-02  5.6533105341773637e-02  3.3142436897311688e-02  1.7406822844492600e-02  8.2304368405731812e-03  3.7650562751766091e-03  2.4758936454764612e-03  1.3298332513647462e-07  8.1546250310159302e-07  5.6667471438995684e-06  2.9988510889466045e-05  1.3035867164058808e-04  4.8147444617066131e-04  1.5361394803296566e-03  4.2682174635858021e-03  1.0370493743178878e-02  2.2108976775308330e-02  4.1587361201723141e-02  6.9642796853945921e-02  1.0501896513516111e-01  1.4425903962780084e-01  1.8236564843310293e-01  2.1418554927644456e-01  2.3607546153886541e-01  2.4675268875669520e-01  2.4673001956697252e-01  2.3711109857299759e-01  2.1887025002772717e-01  1.9295695309114078e-01  1.6089118080421091e-01  1.2530932808776957e-01  8.9935408433393024e-02  5.8720519896823968e-02  3.4510663702113940e-02  1.8132633509409437e-02  8.5506039058660509e-03  3.8824197157337368e-03  2.5280320634560667e-03  2.5520072513212575e-07  1.0784894221819794e-06  6.4879313394800140e-06  3.1924328908583035e-05  1.3276209652027081e-04  4.7664286397226211e-04  1.4939818455737424e-03  4.1111158567220425e-03  9.9576518558075009e-03  2.1268519375286954e-02  4.0191106287499376e-02  6.7612175910353664e-02  1.0218351675733610e-01  1.4025475136561630e-01  1.7684492742577873e-01  2.0720981439525885e-01  2.2822340752813405e-01  2.3880081284218801e-01  2.3926950475472050e-01  2.3042228681114804e-01  2.1301941342992911e-01  1.8793640903254616e-01  1.5669811843016623e-01  1.2195138635333934e-01  8.7395597137899836e-02  5.6925444093939771e-02  3.3331044550914721e-02  1.7412047797818065e-02  8.1364527129940915e-03  3.6394539471873849e-03  2.3329485465875929e-03  3.2010888996368010e-07  1.1493766039728812e-06  6.3485323461058398e-06  2.9767295844689006e-05  1.2006066553862776e-04  4.2265930688377624e-04  1.3093130481813685e-03  3.5838152131730705e-03  8.6826983588992029e-03  1.8637534234200271e-02  3.5510609627380015e-02  6.0310776885690177e-02  9.1965904229569559e-02  1.2715442056002818e-01  1.6126511468497601e-01  1.8993508683096022e-01  2.1025057098845673e-01  2.2101873071966330e-01  2.2223841999673288e-01  2.1439715069459739e-01  1.9812854269593913e-01  1.7435658607536972e-01  1.4472700815978232e-01  1.1194906482533216e-01  7.9629535485601977e-02  5.1414330747955338e-02  2.9796766889250127e-02  1.5373164045492790e-02  7.0676194217679112e-03  3.0869773548390512e-03  1.9332016719850755e-03  3.1637449726518916e-07  1.0359007970616055e-06  5.4186115793268817e-06  2.4590470616867078e-05  9.7127105110482648e-05  3.3750094825979536e-04  1.0382576012154627e-03  2.8369139321244010e-03  6.8941849499097206e-03  1.4909525456200235e-02  2.8725732816690466e-02  4.9452834238224601e-02  7.6507780777586423e-02  1.0728886274893601e-01  1.3786828518225611e-01  1.6430058317825103e-01  1.8370867823861395e-01  1.9461352812281763e-01  1.9661811489474443e-01  1.8993009658066590e-01  1.7512339623015466e-01  1.5324392599620251e-01  1.2610566610105786e-01  9.6461175865954055e-02  6.7712110636261300e-02  4.3069843749412605e-02  2.4543986791642394e-02  1.2418768518229673e-02  5.5722475968317860e-03  2.3515150141840205e-03  1.4237977663289229e-03  2.6176983355737407e-07  8.0886635624559480e-07  4.0846874066501930e-06  1.8137758596511802e-05  7.0673336940300509e-05  2.4369202770176647e-04  7.4746202493790131e-04  2.0451108303385927e-03  4.9975970805954274e-03  1.0912994257948377e-02  2.1311517680863139e-02  3.7302354741127579e-02  5.8788138046250028e-02  8.4029695662149906e-02  1.0998480292358184e-01  1.3325931585926037e-01  1.5105482037387852e-01  1.6161965666366607e-01  1.6418861899015558e-01  1.5872516231884906e-01  1.4576801407427917e-01  1.2648171505297959e-01  1.0279862686101657e-01  7.7404936360706916e-02  5.3341118330000374e-02  3.3229329430508353e-02  1.8499196668252581e-02  9.1116135583518311e-03  3.9536310907397846e-03  1.5905244058814030e-03  9.1697497947822659e-04  1.8648617725455159e-07  5.5481924037268802e-07  2.7413361892222379e-06  1.2008555178726597e-05  4.6429905186303631e-05  1.5956757194008083e-04  4.8965284573997060e-04  1.3451140252866297e-03  3.3122535377316802e-03  7.3157928653326864e-03  1.4504628563117123e-02  2.5860709737238613e-02  4.1614935357513608e-02  6.0801409266673441e-02  8.1305784913884752e-02  1.0043672785515423e-01  1.1566855697341580e-01  1.2515558888060258e-01  1.2789121671537587e-01  1.2365307785923174e-01  1.1293245103928393e-01  9.6932135818730891e-02  7.7561403667627496e-02  5.7263286928749567e-02  3.8558014899566950e-02  2.3395566510675446e-02  1.2640390459221209e-02  6.0106922349718542e-03  2.4937697942507145e-03  9.3865772893515233e-04  5.0241317804877207e-04  1.1614044523645475e-07  3.3712075885265559e-07  1.6463975831895986e-06  7.1612565020754100e-06  2.7607271107828361e-05  9.4916245201388149e-05  2.9223269202326884e-04  8.0778766185482032e-04  2.0076233794578558e-03  4.4901576688855093e-03  9.0451148390595822e-03  1.6437029816636185e-02  2.7025201123058812e-02  4.0392862239362351e-02  5.5236610120715832e-02  6.9631112316071372e-02  8.1530478987380514e-02  8.9243199817185342e-02  9.1714346523298435e-02  8.8622762433537935e-02  8.0384442165540443e-02  6.8114997646817554e-02  5.3516547000573768e-02  3.8609977593435409e-02  2.5294736494270352e-02  1.4867472722754406e-02  7.7395799810714930e-03  3.5172339896146015e-03  1.3736309326016789e-03  4.6950431289053080e-04  2.2189524533206464e-04  6.3786780387758048e-08  1.8238441334605710e-07  8.8768190101282978e-07  3.8545580368919097e-06  1.4876813902816821e-05  5.1329982842852788e-05  1.5894817468914668e-04  4.4288059491492016e-04  1.1122022509941680e-03  2.5201740772067523e-03  5.1578904710497782e-03  9.5486649355962325e-03  1.6028322294843671e-02  2.4485822903543512e-02  3.4212830667354616e-02  4.3979680119020370e-02  5.2321466218814491e-02  5.7899467551616630e-02  5.9797512084116919e-02  5.7691991595565213e-02  5.1903157607059561e-02  4.3344429149049790e-02  3.3360901738760433e-02  2.3445948696146773e-02  1.4880286418375981e-02  8.4204325594029374e-03  4.1851756810752519e-03  1.7918691591118901e-03  6.4238637335027452e-04  1.8809260103301608e-04  6.8405457476338407e-05  3.1060864164267309e-08  8.8127057462332619e-08  4.3046037154888151e-07  1.8745003949905057e-06  7.2685154237776666e-06  2.5236861955437405e-05  7.8760497188019635e-05  2.2152252620162664e-04  5.6254923358860405e-04  1.2915563979123575e-03  2.6840114537529983e-03  5.0556872834291201e-03  8.6490769630016284e-03  1.3477145608239710e-02  1.9199800940861971e-02  2.5116657789907796e-02  3.0304416645847546e-02  3.3848713427211692e-02  3.5080749666703416e-02  3.37454332119