<?xml version="1.0"?>
<VTKFile type="UnstructuredGrid"  version="0.1"  >
<UnstructuredGrid>
<Piece  NumberOfPoints="3721" NumberOfCells="7200">
<Points>
<DataArray  type="Float64"  NumberOfComponents="3"  format="ascii">-2.5 -2.5 0  -2.416666666666667 -2.5 0  -2.333333333333333 -2.5 0  -2.25 -2.5 0  -2.166666666666667 -2.5 0  -2.083333333333333 -2.5 0  -2 -2.5 0  -1.916666666666667 -2.5 0  -1.833333333333333 -2.5 0  -1.75 -2.5 0  -1.666666666666667 -2.5 0  -1.583333333333333 -2.5 0  -1.5 -2.5 0  -1.416666666666667 -2.5 0  -1.333333333333333 -2.5 0  -1.25 -2.5 0  -1.166666666666667 -2.5 0  -1.083333333333333 -2.5 0  -1 -2.5 0  -0.9166666666666667 -2.5 0  -0.8333333333333333 -2.5 0  -0.75 -2.5 0  -0.6666666666666667 -2.5 0  -0.5833333333333333 -2.5 0  -0.5 -2.5 0  -0.4166666666666665 -2.5 0  -0.3333333333333335 -2.5 0  -0.25 -2.5 0  -0.1666666666666665 -2.5 0  -0.08333333333333348 -2.5 0  0 -2.5 0  0.08333333333333348 -2.5 0  0.1666666666666665 -2.5 0  0.25 -2.5 0  0.3333333333333335 -2.5 0  0.4166666666666665 -2.5 0  0.5 -2.5 0  0.5833333333333335 -2.5 0  0.6666666666666665 -2.5 0  0.75 -2.5 0  0.8333333333333335 -2.5 0  0.9166666666666665 -2.5 0  1 -2.5 0  1.083333333333333 -2.5 0  1.166666666666667 -2.5 0  1.25 -2.5 0  1.333333333333333 -2.5 0  1.416666666666667 -2.5 0  1.5 -2.5 0  1.583333333333333 -2.5 0  1.666666666666667 -2.5 0  1.75 -2.5 0  1.833333333333333 -2.5 0  1.916666666666667 -2.5 0  2 -2.5 0  2.083333333333333 -2.5 0  2.166666666666667 -2.5 0  2.25 -2.5 0  2.333333333333333 -2.5 0  2.416666666666667 -2.5 0  2.5 -2.5 0  -2.5 -2.416666666666667 0  -2.416666666666667 -2.416666666666667 0  -2.333333333333333 -2.416666666666667 0  -2.25 -2.416666666666667 0  -2.166666666666667 -2.416666666666667 0  -2.083333333333333 -2.416666666666667 0  -2 -2.416666666666667 0  -1.916666666666667 -2.416666666666667 0  -1.833333333333333 -2.416666666666667 0  -1.75 -2.416666666666667 0  -1.666666666666667 -2.416666666666667 0  -1.583333333333333 -2.416666666666667 0  -1.5 -2.416666666666667 0  -1.416666666666667 -2.416666666666667 0  -1.333333333333333 -2.416666666666667 0  -1.25 -2.416666666666667 0  -1.166666666666667 -2.416666666666667 0  -1.083333333333333 -2.416666666666667 0  -1 -2.416666666666667 0  -0.9166666666666667 -2.416666666666667 0  -0.8333333333333333 -2.416666666666667 0  -0.75 -2.416666666666667 0  -0.6666666666666667 -2.416666666666667 0  -0.5833333333333333 -2.416666666666667 0  -0.5 -2.416666666666667 0  -0.4166666666666665 -2.416666666666667 0  -0.3333333333333335 -2.416666666666667 0  -0.25 -2.416666666666667 0  -0.1666666666666665 -2.416666666666667 0  -0.08333333333333348 -2.416666666666667 0  0 -2.416666666666667 0  0.08333333333333348 -2.416666666666667 0  0.1666666666666665 -2.416666666666667 0  0.25 -2.416666666666667 0  0.3333333333333335 -2.416666666666667 0  0.4166666666666665 -2.416666666666667 0  0.5 -2.416666666666667 0  0.5833333333333335 -2.416666666666667 0  0.6666666666666665 -2.416666666666667 0  0.75 -2.416666666666667 0  0.8333333333333335 -2.416666666666667 0  0.9166666666666665 -2.416666666666667 0  1 -2.416666666666667 0  1.083333333333333 -2.416666666666667 0  1.166666666666667 -2.416666666666667 0  1.25 -2.416666666666667 0  1.333333333333333 -2.416666666666667 0  1.416666666666667 -2.416666666666667 0  1.5 -2.416666666666667 0  1.583333333333333 -2.416666666666667 0  1.666666666666667 -2.416666666666667 0  1.75 -2.416666666666667 0  1.833333333333333 -2.416666666666667 0  1.916666666666667 -2.416666666666667 0  2 -2.416666666666667 0  2.083333333333333 -2.416666666666667 0  2.166666666666667 -2.416666666666667 0  2.25 -2.416666666666667 0  2.333333333333333 -2.416666666666667 0  2.416666666666667 -2.416666666666667 0  2.5 -2.416666666666667 0  -2.5 -2.333333333333333 0  -2.416666666666667 -2.333333333333333 0  -2.333333333333333 -2.333333333333333 0  -2.25 -2.333333333333333 0  -2.166666666666667 -2.333333333333333 0  -2.083333333333333 -2.333333333333333 0  -2 -2.333333333333333 0  -1.916666666666667 -2.333333333333333 0  -1.833333333333333 -2.333333333333333 0  -1.75 -2.333333333333333 0  -1.666666666666667 -2.333333333333333 0  -1.583333333333333 -2.333333333333333 0  -1.5 -2.333333333333333 0  -1.416666666666667 -2.333333333333333 0  -1.333333333333333 -2.333333333333333 0  -1.25 -2.333333333333333 0  -1.166666666666667 -2.333333333333333 0  -1.083333333333333 -2.333333333333333 0  -1 -2.333333333333333 0  -0.9166666666666667 -2.333333333333333 0  -0.8333333333333333 -2.333333333333333 0  -0.75 -2.333333333333333 0  -0.6666666666666667 -2.333333333333333 0  -0.5833333333333333 -2.333333333333333 0  -0.5 -2.333333333333333 0  -0.4166666666666665 -2.333333333333333 0  -0.3333333333333335 -2.333333333333333 0  -0.25 -2.333333333333333 0  -0.1666666666666665 -2.333333333333333 0  -0.08333333333333348 -2.333333333333333 0  0 -2.333333333333333 0  0.08333333333333348 -2.333333333333333 0  0.1666666666666665 -2.333333333333333 0  0.25 -2.333333333333333 0  0.3333333333333335 -2.333333333333333 0  0.4166666666666665 -2.333333333333333 0  0.5 -2.333333333333333 0  0.5833333333333335 -2.333333333333333 0  0.6666666666666665 -2.333333333333333 0  0.75 -2.333333333333333 0  0.8333333333333335 -2.333333333333333 0  0.9166666666666665 -2.333333333333333 0  1 -2.333333333333333 0  1.083333333333333 -2.333333333333333 0  1.166666666666667 -2.333333333333333 0  1.25 -2.333333333333333 0  1.333333333333333 -2.333333333333333 0  1.416666666666667 -2.333333333333333 0  1.5 -2.333333333333333 0  1.583333333333333 -2.333333333333333 0  1.666666666666667 -2.333333333333333 0  1.75 -2.333333333333333 0  1.833333333333333 -2.333333333333333 0  1.916666666666667 -2.333333333333333 0  2 -2.333333333333333 0  2.083333333333333 -2.333333333333333 0  2.166666666666667 -2.333333333333333 0  2.25 -2.333333333333333 0  2.333333333333333 -2.333333333333333 0  2.416666666666667 -2.333333333333333 0  2.5 -2.333333333333333 0  -2.5 -2.25 0  -2.416666666666667 -2.25 0  -2.333333333333333 -2.25 0  -2.25 -2.25 0  -2.166666666666667 -2.25 0  -2.083333333333333 -2.25 0  -2 -2.25 0  -1.916666666666667 -2.25 0  -1.833333333333333 -2.25 0  -1.75 -2.25 0  -1.666666666666667 -2.25 0  -1.583333333333333 -2.25 0  -1.5 -2.25 0  -1.416666666666667 -2.25 0  -1.333333333333333 -2.25 0  -1.25 -2.25 0  -1.166666666666667 -2.25 0  -1.083333333333333 -2.25 0  -1 -2.25 0  -0.9166666666666667 -2.25 0  -0.8333333333333333 -2.25 0  -0.75 -2.25 0  -0.6666666666666667 -2.25 0  -0.5833333333333333 -2.25 0  -0.5 -2.25 0  -0.4166666666666665 -2.25 0  -0.3333333333333335 -2.25 0  -0.25 -2.25 0  -0.1666666666666665 -2.25 0  -0.08333333333333348 -2.25 0  0 -2.25 0  0.08333333333333348 -2.25 0  0.1666666666666665 -2.25 0  0.25 -2.25 0  0.3333333333333335 -2.25 0  0.4166666666666665 -2.25 0  0.5 -2.25 0  0.5833333333333335 -2.25 0  0.6666666666666665 -2.25 0  0.75 -2.25 0  0.8333333333333335 -2.25 0  0.9166666666666665 -2.25 0  1 -2.25 0  1.083333333333333 -2.25 0  1.166666666666667 -2.25 0  1.25 -2.25 0  1.333333333333333 -2.25 0  1.416666666666667 -2.25 0  1.5 -2.25 0  1.583333333333333 -2.25 0  1.666666666666667 -2.25 0  1.75 -2.25 0  1.833333333333333 -2.25 0  1.916666666666667 -2.25 0  2 -2.25 0  2.083333333333333 -2.25 0  2.166666666666667 -2.25 0  2.25 -2.25 0  2.333333333333333 -2.25 0  2.416666666666667 -2.25 0  2.5 -2.25 0  -2.5 -2.166666666666667 0  -2.416666666666667 -2.166666666666667 0  -2.333333333333333 -2.166666666666667 0  -2.25 -2.166666666666667 0  -2.166666666666667 -2.166666666666667 0  -2.083333333333333 -2.166666666666667 0  -2 -2.166666666666667 0  -1.916666666666667 -2.166666666666667 0  -1.833333333333333 -2.166666666666667 0  -1.75 -2.166666666666667 0  -1.666666666666667 -2.166666666666667 0  -1.583333333333333 -2.166666666666667 0  -1.5 -2.166666666666667 0  -1.416666666666667 -2.166666666666667 0  -1.333333333333333 -2.166666666666667 0  -1.25 -2.166666666666667 0  -1.166666666666667 -2.166666666666667 0  -1.083333333333333 -2.166666666666667 0  -1 -2.166666666666667 0  -0.9166666666666667 -2.166666666666667 0  -0.8333333333333333 -2.166666666666667 0  -0.75 -2.166666666666667 0  -0.6666666666666667 -2.166666666666667 0  -0.5833333333333333 -2.166666666666667 0  -0.5 -2.166666666666667 0  -0.4166666666666665 -2.166666666666667 0  -0.3333333333333335 -2.166666666666667 0  -0.25 -2.166666666666667 0  -0.1666666666666665 -2.166666666666667 0  -0.08333333333333348 -2.166666666666667 0  0 -2.166666666666667 0  0.08333333333333348 -2.166666666666667 0  0.1666666666666665 -2.166666666666667 0  0.25 -2.166666666666667 0  0.3333333333333335 -2.166666666666667 0  0.4166666666666665 -2.166666666666667 0  0.5 -2.166666666666667 0  0.5833333333333335 -2.166666666666667 0  0.6666666666666665 -2.166666666666667 0  0.75 -2.166666666666667 0  0.8333333333333335 -2.166666666666667 0  0.9166666666666665 -2.166666666666667 0  1 -2.166666666666667 0  1.083333333333333 -2.166666666666667 0  1.166666666666667 -2.166666666666667 0  1.25 -2.166666666666667 0  1.333333333333333 -2.166666666666667 0  1.416666666666667 -2.166666666666667 0  1.5 -2.166666666666667 0  1.583333333333333 -2.166666666666667 0  1.666666666666667 -2.166666666666667 0  1.75 -2.166666666666667 0  1.833333333333333 -2.166666666666667 0  1.916666666666667 -2.166666666666667 0  2 -2.166666666666667 0  2.083333333333333 -2.166666666666667 0  2.166666666666667 -2.166666666666667 0  2.25 -2.166666666666667 0  2.333333333333333 -2.166666666666667 0  2.416666666666667 -2.166666666666667 0  2.5 -2.166666666666667 0  -2.5 -2.083333333333333 0  -2.416666666666667 -2.083333333333333 0  -2.333333333333333 -2.083333333333333 0  -2.25 -2.083333333333333 0  -2.166666666666667 -2.083333333333333 0  -2.083333333333333 -2.083333333333333 0  -2 -2.083333333333333 0  -1.916666666666667 -2.083333333333333 0  -1.833333333333333 -2.083333333333333 0  -1.75 -2.083333333333333 0  -1.666666666666667 -2.083333333333333 0  -1.583333333333333 -2.083333333333333 0  -1.5 -2.0833333333333
[...]
<PointData  Scalars="f_18-1"> 
<DataArray  type="Float64"  Name="f_18-1"  format="ascii">-1.6909581445107317e-20  2.1043257882711404e-20  5.9376810845302733e-20  -3.1919816489717514e-20  -2.3537251057262061e-19  -1.2324316129747048e-19  5.2863136022813785e-19  7.8975313284199798e-19  -3.9299951480776256e-19  -1.8067599897816961e-18  -9.6130534444969967e-19  1.6353120493577282e-18  2.4456782908654592e-18  3.5492442376966236e-19  -1.6640241988342840e-18  -1.4092180063698442e-18  -1.0600751073996145e-19  4.8065529716815823e-19  3.1568315485556588e-19  7.5668380098376919e-20  -6.5390332089028632e-21  -1.1589992701060298e-20  -5.4203561853115683e-21  -1.8970654633052727e-21  -5.9079925179922485e-22  -1.7244993788762055e-22  -4.7187299806356097e-23  -1.1490590203469737e-23  -2.1679942332333950e-24  -1.3873772743649324e-25  1.1892307461971779e-25  6.9934640935645652e-26  2.2122692771188381e-26  3.8685960833937554e-27  -1.6779659896047007e-28  -3.3974077253435097e-28  -9.7643978857385595e-29  -4.7369262825499080e-30  5.3617533238763691e-30  1.5657965472771325e-30  -3.4649570515736598e-32  -1.0548867387858154e-31  -1.3624713068770680e-32  4.9157304842492684e-33  1.2784949699045560e-33  -2.0026430863665923e-34  -8.4273369512361353e-35  9.8359608420187374e-36  4.7226301288835374e-36  -6.8239618450920913e-37  -2.1566696044066348e-37  4.9666443309928628e-38  7.1209437290042842e-39  -3.5268379073069018e-39  1.8093802615995782e-40  1.3375245667647211e-40  -3.3423171904717861e-41  1.5184630511116869e-42  8.9788988565873758e-43  -1.7082704387785856e-43  4.6415524310657681e-44  2.1043257882711401e-20  2.9234214471875153e-20  -2.2174691962368491e-20  -1.5381245257252628e-19  -6.1497958765236482e-20  4.7286565492294246e-19  6.4620667644367876e-19  -6.6320954838147945e-19  -2.1724692847244997e-18  -6.4743656484110659e-19  3.3320753479503190e-18  3.9639554406099704e-18  -9.9684640695505916e-19  -5.2260954053992927e-18  -3.2022258322589057e-18  1.5352466802004414e-18  3.0167139363101092e-18  1.2824975310643267e-18  -2.8235665300231171e-19  -5.0343202955914845e-19  -2.2461515631202675e-19  -5.2294439524397077e-20  -5.3421462351586273e-21  1.2574920360661201e-21  8.6873474880123655e-22  2.9096647299171331e-22  6.4096748956961062e-23  4.4651290435401732e-24  -4.7459959531835247e-24  -3.2877716628993757e-24  -1.3690993132031296e-24  -4.0884851682748491e-25  -7.9992512954353905e-26  -2.5822651489596891e-27  4.9301247075875410e-27  1.9744507900100018e-27  2.9872430867702953e-28  -4.6562303771228868e-29  -3.2598504029393163e-29  -4.5811266923179185e-30  1.1459345848968901e-30  4.9352367655141579e-31  2.5402804009555217e-33  -2.9631553463729798e-32  -2.9229380814153034e-33  1.5108051136834563e-33  2.3737966429949366e-34  -8.2426884241469785e-35  -1.1795449182375907e-35  4.6301549733095273e-36  3.9780086884535934e-37  -2.7516379730403031e-37  9.0311016559761849e-39  1.2485489589412739e-38  -2.4954266488719927e-39  -6.0548276243757606e-41  1.0323932662363904e-40  -1.7774116857895572e-41  4.6694324839449619e-43  2.6098075578714000e-43  -1.7082704387785738e-43  5.9376810845302721e-20  -2.2174691962368488e-20  -1.7995863928890430e-19  -6.1844793028243712e-20  7.0585938478858038e-19  9.3739883292117082e-19  -1.4654428334095673e-18  -4.2780063534153239e-18  -3.1919212950536894e-19  9.6409142939826228e-18  9.8121383628567512e-18  -7.7566348244918907e-18  -2.1645185358022962e-17  -8.9173840341947045e-18  1.5535979856166605e-17  2.0059540309126842e-17  4.0005889785281631e-18  -8.4462093184354071e-18  -7.2991189502359146e-18  -1.7410177594885808e-18  7.1798304943060718e-19  6.7780551960456021e-19  2.7101986368101357e-19  8.0177108907496450e-20  2.1216574531822970e-20  5.7731040822245976e-21  1.7242571607540930e-21  5.5949829146372490e-22  1.8179652198066390e-22  5.4682647040445614e-23  1.3778811518898260e-23  2.4107555496714451e-24  2.2306370885636643e-26  -1.7730704633660486e-25  -7.3322928369070128e-26  -1.4111633810470677e-26  4.3954892846375273e-28  1.1030356123424578e-27  2.6866436491867367e-28  -8.3703429889209838e-30  -1.8903747419792514e-29  -2.8832067711669182e-30  7.4555591944747680e-31  2.6079132760088011e-31  -1.8789034171666763e-32  -1.6658802864105013e-32  4.7528955437462071e-34  9.2376489198507531e-34  -3.6343973321799111e-35  -4.7564644051428820e-35  4.5714425781256482e-36  2.1478973399873347e-36  -5.0678662138992756e-37  -2.4450950027938103e-38  2.6008658642057167e-38  -3.7812574701561796e-39  -1.9464980931951698e-40  1.5443794546878237e-40  -2.4700348442180525e-41  4.6694324839461281e-43  8.9788988565872515e-43  -3.1919816489717514e-20  -1.5381245257252628e-19  -6.1844793028243725e-20  7.9283630276928385e-19  1.0921946281651823e-18  -2.2570799487713684e-18  -6.4578083368541209e-18  9.7279438564520413e-19  2.0201692056246088e-17  1.7819549220497330e-17  -2.8461185302753217e-17  -6.2839957835664601e-17  -1.0721299740252915e-17  8.1361421726980822e-17  8.4228211732551890e-17  -1.2320750414770072e-17  -7.9781663352781462e-17  -5.1341791821592647e-17  5.9169807797253474e-18  2.4427989763637870e-17  1.3084363157093499e-17  2.2695218002131601e-18  -6.9204751049387908e-19  -5.8867833076702152e-19  -2.4221303603712868e-19  -7.9515264884100795e-20  -2.3783308068723334e-20  -6.6678720473670090e-21  -1.7184269675858308e-21  -3.7106759434868835e-22  -4.9729628628609759e-23  6.4113561565432052e-24  7.2576052634870011e-24  2.7665804324487881e-24  5.9742196819665855e-25  2.3992732871370017e-26  -3.3660180090567987e-26  -1.2075499346291658e-26  -1.0563007377556958e-27  5.2384770156400718e-28  1.7972320974112478e-28  -6.6539698982784012e-31  -1.0950111084832143e-29  -1.3066139500878331e-30  5.2222922314283719e-31  1.0871490574384257e-31  -2.5740951809556152e-32  -5.9991509259314716e-33  1.4132169969864314e-33  2.7203834432758433e-34  -9.5721912560498649e-35  -3.5644315071585362e-36  5.0528240417227636e-36  -6.5098891601898584e-37  -8.2574805689202815e-38  3.6969529559119777e-38  -4.1426956153786046e-39  -2.6848094898193910e-40  1.5443794546878281e-40  -1.7774116857895972e-41  1.5184630511118118e-42  -2.3537251057262061e-19  -6.1497958765236518e-20  7.0585938478858019e-19  1.0921946281651823e-18  -2.5970789728512499e-18  -7.8977082710574896e-18  2.6284012911170462e-18  3.2500839029342002e-17  2.5608645768676135e-17  -6.8567579579207297e-17  -1.3669318748156237e-16  1.5040713661788884e-17  2.7914692953875320e-16  2.4222802514639297e-16  -1.6849823286566005e-16  -4.3367884805023412e-16  -2.0064553354379827e-16  1.8308345677841399e-16  2.6272004994858352e-16  9.3425738440088425e-17  -3.6366539445344274e-17  -4.6810586646354899e-17  -1.9291179026647346e-17  -4.1675625792189443e-18  -3.7977035650792466e-19  9.6326122925301044e-20  5.6934842548824321e-20  1.5420107504239398e-20  1.5963028185474222e-21  -9.5520305698240802e-22  -7.6382761642649439e-22  -3.3725374042633850e-22  -1.0593877912662587e-22  -2.2411291778335961e-23  -1.4547419980460123e-24  1.0550384610145637e-24  4.7376660072367891e-25  7.6194173574747592e-26  -9.8578755931646283e-27  -7.3970266758317466e-27  -9.5291183480315100e-28  2.8246110492179485e-28  9.9497086110695954e-29  -4.3947986172946745e-30  -6.2473529799061426e-30  -9.7437900160626835e-32  3.3108958875270792e-31  8.8075035404723186e-33  -1.7916800641496985e-32  4.5803161687552013e-34  8.8894975013194079e-34  -1.3283081411166882e-34  -1.8759630678149765e-35  8.1026548628655160e-36  -7.1834449812573879e-37  -1.2451051612464672e-37  4.1424974634407114e-38  -4.1426956153785329e-39  -1.9464980931954582e-40  1.0323932662364100e-40  -3.3423171904718590e-41  -1.2324316129747052e-19  4.7286565492294256e-19  9.3739883292117082e-19  -2.2570799487713684e-18  -7.8977082710574880e-18  3.4068677876561385e-18  4.1014878862228735e-17  3.0682408252501367e-17  -1.1942904941452131e-16  -2.3137414155007134e-16  9.6480985477807355e-17  6.8737777482017398e-16  5.0041949241311333e-16  -7.9338644028104255e-16  -1.5774437409514068e-15  -3.9775042122742983e-16  1.4290593356286862e-15  1.5784044954277038e-15  1.8795470713035392e-16  -7.9217625160909725e-16  -6.3379275365842113e-16  -1.3842726096372239e-16  7.1131360454998982e-17  6.1912999492111030e-17  2.4027839280190404e-17  7.0475682518934139e-18  1.9006664099295000e-18  5.3242849105908874e-19  1.6105591071713765e-19  5.0213560365989971e-20  1.4945019669379624e-20  3.8233691828165414e-21  7.1441816046288148e-22  3.2011500630628999e-23  -3.9892097312624126e-23  -1.8176805329338726e-23  -3.6762621150988340e-24  5.0196140350948576e-26  2.5615891166984842e-25  6.1148913886215095e-26  -2.9291247004417953e-27  -4.2037742457499367e-27  -4.7804544065719126e-28  1.9252286194399628e-28  4.2963228725907130e-29  -8.0419469329679001e-30  -2.5378170685076263e-30  4.1268769595362957e-31  1.2527093395127371e-31  -3.0796112971705019e-32  -2.6736263617230527e-33  1.6840044364486524e-33  -1.4706995330019046e-34  -3.4357938586929926e-35  1.0077595407471799e-35  -7.3251128395370239e-37  -1.2451051612464273e-37  3.6969529559120064e-38  -3.7812574701561600e-39  -6.0548276243749970e-41  1.3375245667647652e-40  5.2863136022813785e-19  6.4620667644367866e-19  -1.4654428334095677e-18  -6.4578083368541217e-18  2.6284012911170454e-18  4.1014878862228729e-17  3.2326062919132276e-17  -1.5638930922419232e-16  -3.1341670282584469e-16  2.2321116643793913e-16  1.2732332479636822e-15  7.7495447645390544e-16  -2.3223252446533809e-15  -4.1272913988579738e-15  3.2628036250540914e-17  6.4812222722144687e-15  6.1052297288305792e-15  -1.5295130341327493e-15  -6.7094279927792613e-15  -4.2820683923651226e-15  5.2463057010368551e-16  2.1608658901477066e-15  1.2075258309083908e-15  2.3511924990618846e-16  -4.9538424768470551e-17  -4.7725402780343684e-17  -1.9580177795027844e-17  -6.3073992012368097e-18  -1.7965396270997225e-18  -4.6185339076343043e-19  -9.8560288156319850e-20  -1.3139516060160023e-20  1.7234308439888454e-21  1.9024708954442205e-21  7.1939500315441977e-22  1.5236374840343388e-22  5.2946305273844035e-24  -8.4702716750744175e-24  -2.8286384060168022e-24  -1.7048705968642794e-25  1.3478627721948881e-25  3.5688216411131406e-26  -2.6551859187067358e-27  -2.3511623234979871e-27  -4.4031871943487724e-29  1.2178144353896778e-28  6.3000468583060190e-30  -6.7002895385937316e-30  2.2656642510924992e-32  3.2196166464226527e-31  -3.9027451058773304e-32  -7.0706922318075935e-33  2.3629221295428441e-33  -1.4669298939246680e-34  -4.1011089508435087e-35  1.0077595407471672e-35  -7.1834449812574530e-37  -8.2574805689203942e-38  2.6008658642057062e-38  -2.4954266488719917e-39  1.8093802615994764e-40  7.8975313284199778e-19  -6.6320954838147973e-19  -4.2780063534153247e-18  9.7279438564520663e-19  3.2500839029342008e-17  3.0682408252501367e-17  -1.5638930922419229e-16  -3.4603345743358185e-16  3.2460406581233834e-16  1.8241632457755377e-15  9.5295481063889446e-16  -4.7755638545024401e-15  -8.1407373499851555e-15  2.5684581210793801e-15  1.9907639877072309e-14  1.6298217277531717e-14  -1.3730483040691000e-14  -3.3848067772836695e-14  -1.6609109028366830e-14  1.4260878633964302e-14  2.2557512545549438e-14  9.4107413710269266e-15  -2.3090594861422021e-15  -4.0831818331753252e-15  -1.8903068668951329e-15  -4.7367285740218395e-16  -7.5478865543488078e-17  -7.7007211158513498e-18  -7.8421608193009620e-19  -6.7326721695724241e-19  -4.9654828061570671e-19  -2.5590746657103549e-19  -9.8489469064676740e-20  -2.8742559548894145e-20  -5.5977540779600621e-21  -2.1462413242914606e-22  3.0531868034648358e-22  1.1763966871624580e-22  1.4496739287126222e-23  -3.5806186780749602e-24  -1.6843888876054879e-24  -9.9448057443537573e-26  8.4111561246939257e-26  1.4573979063160723e-26  -3.2268413286640863e-27  -9.7654872607289545e-28  1.5952376395150322e-28  4.7027811978707306e-29  -1.1161649294375080e-29  -9.0253658769699599e-31  5.3791809332384291e-31  -4.1435282083782101e-32  -1.0326619843695872e-32  2.6301940120414505e-33  -1.4669298939246271e-34  -3.4357938586930738e-35  8.1026548628654759e-36  -6.5098891601896546e-37  -2.4450950027942828e-38  1.2485489589412914e-38  -3.5268379073069363e-39  -3.9299951480776309e-19  -2.1724692847244997e-18  -3.1919212950536754e-19  2.0201692056246088e-17  2.5608645768676120e-17  -1.1942904941452134e-16  -3.1341670282584459e-16  3.2460406581233839e-16  2.0529881111019549e-15  1.0140757839038938e-15  -7.2505168436691931e-15  -1.2532386483527637e-14  8.0639230396843181e-15  4.4284455489031026e-14  3.1536962142289033e-14  -5.5955804392182136e-14  -1.1520997024801882e-13  -3.6315103035847513e-14  1.0496299211135209e-13  1.3330179089596526e-13  3.1458854775294502e-14  -5.8651456514721010e-14  -5.8827153961074165e-14  -1.9096859122825945e-14  3.1102532611893157e-15  5.0169820080762051e-15  2.2201836761563185e-15  6.9715444684895002e-16  1.9972565226044470e-16  5.6343386159191880e-17  1.6068163444687659e-17  4.3335450750160573e-18  1.0014600412175469e-18  1.5720733015613669e-19  -4.7091168006282816e-21  -1.3286579889247939e-20  -4.8113678203003045e-21  -7.3724713838978769e-22  8.6523711719472698e-23  6.8074942637928781e-23  1.0161875083171073e-23  -2.2172407208488865e-24  -8.7355142352316941e-25  1.8781485781493026e-26  4.8920027513173292e-26  1.2343391963681451e-27  -2.6293719341441585e-27  7.4223847654926552e-29  1.0826321529794849e-28  -1.4353828251621811e-29  -1.9275134203010026e-30  6.8013806937366171e-31  -4.1452840230611698e-32  -1.0326619843695635e-32  2.3629221295428749e-33  -1.4706995330019155e-34  -1.8759630678148755e-35  5.0528240417227449e-36  -5.0678662138991845e-37  9.0311016559766247e-39  7.1209437290046992e-39  -1.8067599897816965e-18  -6.4743656484110621e-19  9.6409142939826228e-18  1.7819549220497321e-17  -6.8567579579207310e-17  -2.3137414155007129e-16  2.2321116643793928e-16  1.8241632457755373e-15  1.0140757839038942e-15  -8.3144697012139146e-15  -1.5442515161442754e-14  1.4470288837557509e-14  7.4092526557289186e-14  4.6505008436055189e-14  -1.4607888924338635e-13  -2.8228680277132346e-13  -2.9070045576263586e-14  4.4822246145987631e-13  5.1195520613109050e-13  -1.6544723498857013e-14  -5.0404018849015392e-13  -4.2870593110242467e-13  -4.8597533404420636e-14  1.5647527184340601e-13  1.2186419876292787e-13  3.8562920593534666e-14  2.7400748280888542e-15  -2.2539228258658494e-15  -1.1593503935257542e-15  -3.7772735407922080e-16  -9.3850821024883551e-17  -1.6415066824536634e-17  -3.1046767299931747e-19  1.3433348427075813e-18  6.7064106532677222e-19  1.9739263566533590e-19  3.0142433107813043e-20  -2.6275890981665234e-21  -2.6839214507149005e-21  -5.6247324641414635e-22  3.9010131496110790e-23  3.8475132988786237e-23  3.5000581856778013e-24  -1.6695117924686303e-24  -3.2516218330378513e-25  8.3283335983790774e-26  1.3744063206771330e-26  -4.5335857347376963e-27  -1.2023175215672097e-28  1.6524930645942874e-28  -1.5794776846284154e-29  -2.3783113416060133e-30  6.8013806937365488e-31  -4.1435282083782682e-32  -7.0706922318076660e-33  1.6840044364486456e-33  -1.3283081411167145e-34  -3.5644315071583103e-36  2.1478973399872769e-36  -2.7516379730402129e-37  4.9666443309926258e-38  -9.6130534444969929e-19  3.3320753479503190e-18  9.8121383628567466e-18  -2.8461185302753229e-17  -1.3669318748156237e-16  9.6480985477807466e-17  1.2732332479636820e-15  9.5295481063889426e-16  -7.2505168436691916e-15  -1.5442515161442757e-14  1.7401119241364396e-14  9.5331588516241760e-14  5.5777935374807363e-14  -2.6830332178446884e-13  -5.1947748464920359e-13  7.0135510126463433e-14  1.2860338741858828e-12  1.3738367824230183e-12  -5.7993651761580155e-13  -2.5132660204094166e-12  -1.8935193425476724e-12  4.9038173916464330e-13  1.7999734890692000e-12  1.1942775110116337e-12  1.3707298469022031e-13  -2.6725270185076562e-13  -1.8888110142987926e-13  -6.5392987740095327e-14  -1.6085692959636714e-14  -3.8970289629209369e-15  -1.0770097768541002e-15  -3.4239329759502646e-16  -1.1303182962205566e-16  -3.2662813652694490e-17  -7.4788750839073514e-18  -9.2185703550276601e-19  1.5299662230704287e-19  1.1271125311413542e-19  2.6119621702626802e-20  -9.2226854503214834e-23  -1.5199863683268492e-21  -2.6826858785676703e-22  4.1343841911126966e-23  1.9787975278600212e-23  -1.2218539882484212e-24  -9.8601872276437198e-25  9.6549352741888578e-26  3.0848462011952389e-26  -6.0096939912940994e-27  -2.8765736092003814e-28  1.8860174207557966e-28  -1.5794776846283787e-29  -1.9275134203010950e-30  5.3791809332384160e-31  -3.9027451058772001e-32  -2.6736263617233490e-33  8.8894975013195585e-34  -9.5721912560499590e-35  4.5714425781254824e-36  3.9780086884534464e-37  -2.1566696044066331e-37  1.6353120493577288e-18  3.9639554406099697e-18  -7.7566348244918922e-18  -6.2839957835664577e-17  1.5040713661788946e-17  6.8737777482017398e-16  7.7495447645390505e-16  -4.7755638545024393e-15  -1.2532386483527635e-14  1.4470288837557506e-14  9.5331588516241772e-14  5.8555118163462469e-14  -3.6070794235745952e-13  -7.3969560079768691e-13  2.7141748063564465e-13  2.6417410028153773e-12  2.7136514953682974e-12  -2.5766125216993641e-12  -8.3258972245410209e-12  -5.4814095665625836e-12  5.0658828249101934e-12  1.1187247563444281e-11  6.3992685291134848e-12  -1.9181867636135415e-12  -4.9194574538055578e-12  -2.9174633298620253e-12  -5.9204902853645938e-13  1.8882794016638433e-13  1.6435539478212045e-13  6.0794712031769230e-14  1.7947217426473823e-14  4.7738557399803193e-15  1.0738867474654244e-15  1.8187227001790181e-16  3.6597602991300870e-18  -1.2201554174624801e-17  -5.1551168638001477e-18  -1.1093044961644967e-18  -1.8023240160434286e-20  6.0918525234090805e-20  1.4237855567407794e-20  -5.8645791190714624e-22  -9.0301858540005838e-22  -4.6495980738182092e-23  4.4486073561052399e-23  1.1717431014898606e-24  -1.7599267509106250e-24  8.8836932369132528e-26  4.3420308373209792e-26  -6.5574109119264587e-27  -2.8765736092000060e-28  1.6524930645942796e-28  -1.4353828251621677e-29  -9.0253658769693259e-31  3.2196166464226408e-31  -3.0796112971704450e-32  4.5803161687553998e-34  2.7203834432759395e-34  -4.7564644051429980e-35  4.6301549733097064e-36  -6.8239618450921865e-37  2.4456782908654584e-18  -9.9684640695506050e-19  -2.1645185358022959e-17  -1.0721299740252899e-17  2.7914692953875325e-16  5.0041949241311333e-16  -2.3223252446533813e-15  -8.1407373499851539e-15  8.0639230396843134e-15  7.4092526557289186e-14  5.5777935374807433e-14  -3.6070794235745947e-13  -8.3037482581397792e-13  4.5116052851029943e-13  4.0204675393760213e-12  4.1275077159937701e-12  -6.5175266762877127e-12  -1.9561472984881363e-11  -1.0927643816353438e-11  2.3041380220849476e-11  4.4444541079639484e-11  2.0328985757876947e-11  -2.4871524955693669e-11  -4.1300032187913852e-11  -2.1325185096346306e-11  2.6253352109521131e-12  9.6055441400423944e-12  5.6854386049341029e-12  1.6996482570967592e-12  2.8723344302271487e-13  3.9141805792106949e-14  1.0795773343559701e-14  4.8491261741350502e-15  2.3169417167088177e-15  8.6790272498947321e-16  2.3463013251172144e-16  4.0917444796445332e-17  -6.5785656288896418e-19  -2.7267326606756073e-18  -6.7078913943942069e-19  -7.7451927463528251e-21  3.7518058671986619e-20  5.2182354245458487e-21  -1.6245854871109618e-21  -2.4241306086398478e-22  6.8952141638019787e-23  4.3179290796225341e-24  -2.2862957753956336e-24  8.1753344038950522e-26  4.3420308373210326e-26  -6.0096939912942034e-27  -1.2023175215671045e-28  1.0826321529794668e-28  -1.1161649294374997e-29  2.2656642510925720e-32  1.2527093395127071e-31  -1.7916800641496381e-32  1.4132169969863680e-33  -3.6343973321793263e-35  -1.1795449182375484e-35  4.7226301288834111e-36  3.5492442376966134e-19  -5.2260954053992919e-18  -8.9173840341946968e-18  8.1361421726980834e-17  2.4222802514639282e-16  -7.9338644028104246e-16  -4.1272913988579730e-15  2.5684581210793821e-15  4.4284455489031026e-14  4.6505008436055201e-14  -2.6830332178446868e-13  -7.3969560079768691e-13  4.5116052851029912e-13  4.6157690207880218e-12  5.0277354272124875e-12  -1.1002211922353819e-11  -3.3892707095528863e-11  -1.5790976312290100e-11  6.5143689990283024e-11  1.2203432