<?xml version="1.0"?>
<VTKFile type="UnstructuredGrid"  version="0.1"  >
<UnstructuredGrid>
<Piece  NumberOfPoints="441" NumberOfCells="800">
<Points>
<DataArray  type="Float64"  NumberOfComponents="3"  format="ascii">-2 -2 0  -1.8 -2 0  -1.6 -2 0  -1.4 -2 0  -1.2 -2 0  -1 -2 0  -0.8 -2 0  -0.6000000000000001 -2 0  -0.3999999999999999 -2 0  -0.2 -2 0  0 -2 0  0.2000000000000002 -2 0  0.3999999999999999 -2 0  0.6000000000000001 -2 0  0.7999999999999998 -2 0  1 -2 0  1.2 -2 0  1.4 -2 0  1.6 -2 0  1.8 -2 0  2 -2 0  -2 -1.8 0  -1.8 -1.8 0  -1.6 -1.8 0  -1.4 -1.8 0  -1.2 -1.8 0  -1 -1.8 0  -0.8 -1.8 0  -0.6000000000000001 -1.8 0  -0.3999999999999999 -1.8 0  -0.2 -1.8 0  0 -1.8 0  0.2000000000000002 -1.8 0  0.3999999999999999 -1.8 0  0.6000000000000001 -1.8 0  0.7999999999999998 -1.8 0  1 -1.8 0  1.2 -1.8 0  1.4 -1.8 0  1.6 -1.8 0  1.8 -1.8 0  2 -1.8 0  -2 -1.6 0  -1.8 -1.6 0  -1.6 -1.6 0  -1.4 -1.6 0  -1.2 -1.6 0  -1 -1.6 0  -0.8 -1.6 0  -0.6000000000000001 -1.6 0  -0.3999999999999999 -1.6 0  -0.2 -1.6 0  0 -1.6 0  0.2000000000000002 -1.6 0  0.3999999999999999 -1.6 0  0.6000000000000001 -1.6 0  0.7999999999999998 -1.6 0  1 -1.6 0  1.2 -1.6 0  1.4 -1.6 0  1.6 -1.6 0  1.8 -1.6 0  2 -1.6 0  -2 -1.4 0  -1.8 -1.4 0  -1.6 -1.4 0  -1.4 -1.4 0  -1.2 -1.4 0  -1 -1.4 0  -0.8 -1.4 0  -0.6000000000000001 -1.4 0  -0.3999999999999999 -1.4 0  -0.2 -1.4 0  0 -1.4 0  0.2000000000000002 -1.4 0  0.3999999999999999 -1.4 0  0.6000000000000001 -1.4 0  0.7999999999999998 -1.4 0  1 -1.4 0  1.2 -1.4 0  1.4 -1.4 0  1.6 -1.4 0  1.8 -1.4 0  2 -1.4 0  -2 -1.2 0  -1.8 -1.2 0  -1.6 -1.2 0  -1.4 -1.2 0  -1.2 -1.2 0  -1 -1.2 0  -0.8 -1.2 0  -0.6000000000000001 -1.2 0  -0.3999999999999999 -1.2 0  -0.2 -1.2 0  0 -1.2 0  0.2000000000000002 -1.2 0  0.3999999999999999 -1.2 0  0.6000000000000001 -1.2 0  0.7999999999999998 -1.2 0  1 -1.2 0  1.2 -1.2 0  1.4 -1.2 0  1.6 -1.2 0  1.8 -1.2 0  2 -1.2 0  -2 -1 0  -1.8 -1 0  -1.6 -1 0  -1.4 -1 0  -1.2 -1 0  -1 -1 0  -0.8 -1 0  -0.6000000000000001 -1 0  -0.3999999999999999 -1 0  -0.2 -1 0  0 -1 0  0.2000000000000002 -1 0  0.3999999999999999 -1 0  0.6000000000000001 -1 0  0.7999999999999998 -1 0  1 -1 0  1.2 -1 0  1.4 -1 0  1.6 -1 0  1.8 -1 0  2 -1 0  -2 -0.8 0  -1.8 -0.8 0  -1.6 -0.8 0  -1.4 -0.8 0  -1.2 -0.8 0  -1 -0.8 0  -0.8 -0.8 0  -0.6000000000000001 -0.8 0  -0.3999999999999999 -0.8 0  -0.2 -0.8 0  0 -0.8 0  0.2000000000000002 -0.8 0  0.3999999999999999 -0.8 0  0.6000000000000001 -0.8 0  0.7999999999999998 -0.8 0  1 -0.8 0  1.2 -0.8 0  1.4 -0.8 0  1.6 -0.8 0  1.8 -0.8 0  2 -0.8 0  -2 -0.6000000000000001 0  -1.8 -0.6000000000000001 0  -1.6 -0.6000000000000001 0  -1.4 -0.6000000000000001 0  -1.2 -0.6000000000000001 0  -1 -0.6000000000000001 0  -0.8 -0.6000000000000001 0  -0.6000000000000001 -0.6000000000000001 0  -0.3999999999999999 -0.6000000000000001 0  -0.2 -0.6000000000000001 0  0 -0.6000000000000001 0  0.2000000000000002 -0.6000000000000001 0  0.3999999999999999 -0.6000000000000001 0  0.6000000000000001 -0.6000000000000001 0  0.7999999999999998 -0.6000000000000001 0  1 -0.6000000000000001 0  1.2 -0.6000000000000001 0  1.4 -0.6000000000000001 0  1.6 -0.6000000000000001 0  1.8 -0.6000000000000001 0  2 -0.6000000000000001 0  -2 -0.3999999999999999 0  -1.8 -0.3999999999999999 0  -1.6 -0.3999999999999999 0  -1.4 -0.3999999999999999 0  -1.2 -0.3999999999999999 0  -1 -0.3999999999999999 0  -0.8 -0.3999999999999999 0  -0.6000000000000001 -0.3999999999999999 0  -0.3999999999999999 -0.3999999999999999 0  -0.2 -0.3999999999999999 0  0 -0.3999999999999999 0  0.2000000000000002 -0.3999999999999999 0  0.3999999999999999 -0.3999999999999999 0  0.6000000000000001 -0.3999999999999999 0  0.7999999999999998 -0.3999999999999999 0  1 -0.3999999999999999 0  1.2 -0.3999999999999999 0  1.4 -0.3999999999999999 0  1.6 -0.3999999999999999 0  1.8 -0.3999999999999999 0  2 -0.3999999999999999 0  -2 -0.2 0  -1.8 -0.2 0  -1.6 -0.2 0  -1.4 -0.2 0  -1.2 -0.2 0  -1 -0.2 0  -0.8 -0.2 0  -0.6000000000000001 -0.2 0  -0.3999999999999999 -0.2 0  -0.2 -0.2 0  0 -0.2 0  0.2000000000000002 -0.2 0  0.3999999999999999 -0.2 0  0.6000000000000001 -0.2 0  0.7999999999999998 -0.2 0  1 -0.2 0  1.2 -0.2 0  1.4 -0.2 0  1.6 -0.2 0  1.8 -0.2 0  2 -0.2 0  -2 0 0  -1.8 0 0  -1.6 0 0  -1.4 0 0  -1.2 0 0  -1 0 0  -0.8 0 0  -0.6000000000000001 0 0  -0.3999999999999999 0 0  -0.2 0 0  0 0 0  0.2000000000000002 0 0  0.3999999999999999 0 0  0.6000000000000001 0 0  0.7999999999999998 0 0  1 0 0  1.2 0 0  1.4 0 0  1.6 0 0  1.8 0 0  2 0 0  -2 0.2000000000000002 0  -1.8 0.2000000000000002 0  -1.6 0.2000000000000002 0  -1.4 0.2000000000000002 0  -1.2 0.2000000000000002 0  -1 0.2000000000000002 0  -0.8 0.2000000000000002 0  -0.6000000000000001 0.2000000000000002 0  -0.3999999999999999 0.2000000000000002 0  -0.2 0.2000000000000002 0  0 0.2000000000000002 0  0.2000000000000002 0.2000000000000002 0  0.3999999999999999 0.2000000000000002 0  0.6000000000000001 0.2000000000000002 0  0.7999999999999998 0.2000000000000002 0  1 0.2000000000000002 0  1.2 0.2000000000000002 0  1.4 0.2000000000000002 0  1.6 0.2000000000000002 0  1.8 0.2000000000000002 0  2 0.2000000000000002 0  -2 0.3999999999999999 0  -1.8 0.3999999999999999 0  -1.6 0.3999999999999999 0  -1.4 0.3999999999999999 0  -1.2 0.3999999999999999 0  -1 0.3999999999999999 0  -0.8 0.3999999999999999 0  -0.6000000000000001 0.3999999999999999 0  -0.3999999999999999 0.3999999999999999 0  -0.2 0.3999999999999999 0  0 0.3999999999999999 0  0.2000000000000002 0.3999999999999999 0  0.3999999999999999 0.3999999999999999 0  0.6000000000000001 0.3999999999999999 0  0.7999999999999998 0.3999999999999999 0  1 0.3999999999999999 0  1.2 0.3999999999999999 0  1.4 0.3999999999999999 0  1.6 0.3999999999999999 0  1.8 0.3999999999999999 0  2 0.3999999999999999 0  -2 0.6000000000000001 0  -1.8 0.6000000000000001 0  -1.6 0.6000000000000001 0  -1.4 0.6000000000000001 0  -1.2 0.6000000000000001 0  -1 0.6000000000000001 0  -0.8 0.6000000000000001 0  -0.6000000000000001 0.6000000000000001 0  -0.3999999999999999 0.6000000000000001 0  -0.2 0.6000000000000001 0  0 0.6000000000000001 0  0.2000000000000002 0.6000000000000001 0  0.3999999999999999 0.6000000000000001 0  0.6000000000000001 0.6000000000000001 0  0.7999999999999998 0.6000000000000001 0  1 0.6000000000000001 0  1.2 0.6000000000000001 0  1.4 0.6000000000000001 0  1.6 0.6000000000000001 0  1.8 0.6000000000000001 0  2 0.6000000000000001 0  -2 0.7999999999999998 0  -1.8 0.7999999999999998 0  -1.6 0.7999999999999998 0  -1.4 0.7999999999999998 0  -1.2 0.7999999999999998 0  -1 0.7999999999999998 0  -0.8 0.7999999999999998 0  -0.6000000000000001 0.7999999999999998 0  -0.3999999999999999 0.7999999999999998 0  -0.2 0.7999999999999998 0  0 0.7999999999999998 0  0.2000000000000002 0.7999999999999998 0  0.3999999999999999 0.7999999999999998 0  0.6000000000000001 0.7999999999999998 0  0.7999999999999998 0.7999999999999998 0  1 0.7999999999999998 0  1.2 0.7999999999999998 0  1.4 0.7999999999999998 0  1.6 0.7999999999999998 0  1.8 0.7999999999999998 0  2 0.7999999999999998 0  -2 1 0  -1.8 1 0  -1.6 1 0  -1.4 1 0  -1.2 1 0  -1 1 0  -0.8 1 0  -0.6000000000000001 1 0  -0.3999999999999999 1 0  -0.2 1 0  0 1 0  0.2000000000000002 1 0  0.3999999999999999 1 0  0.6000000000000001 1 0  0.7999999999999998 1 0  1 1 0  1.2 1 0  1.4 1 0  1.6 1 0  1.8 1 0  2 1 0  -2 1.2 0  -1.8 1.2 0  -1.6 1.2 0  -1.4 1.2 0  -1.2 1.2 0  -1 1.2 0  -0.8 1.2 0  -0.6000000000000001 1.2 0  -0.3999999999999999 1.2 0  -0.2 1.2 0  0 1.2 0  0.2000000000000002 1.2 0  0.3999999999999999 1.2 0  0.6000000000000001 1.2 0  0.7999999999999998 1.2 0  1 1.2 0  1.2 1.2 0  1.4 1.2 0  1.6 1.2 0  1.8 1.2 0  2 1.2 0  -2 1.4 0  -1.8 1.4 0  -1.6 1.4 0  -1.4 1.4 0  -1.2 1.4 0  -1 1.4 0  -0.8 1.4 0  -0.6000000000000001 1.4 0  -0.3999999999999999 1.4 0  -0.2 1.4 0  0 1.4 0  0.2000000000000002 1.4 0  0.3999999999999999 1.4 0  0.6000000000000001 1.4 0  0.7999999999999998 1.4 0  1 1.4 0  1.2 1.4 0  1.4 1.4 0  1.6 1.4 0  1.8 1.4 0  2 1.4 0  -2 1.6 0  -1.8 1.6 0  -1.6 1.6 0  -1.4 1.6 0  -1.2 1.6 0  -1 1.6 0  -0.8 1.6 0  -0.6000000000000001 1.6 0  -0.3999999999999999 1.6 0  -0.2 1.6 0  0 1.6 0  0.2000000000000002 1.6 0  0.3999999999999999 1.6 0  0.6000000000000001 1.6 0  0.7999999999999998 1.6 0  1 1.6 0  1.2 1.6 0  1.4 1.6 0  1.6 1.6 0  1.8 1.6 0  2 1.6 0  -2 1.8 0  -1.8 1.8 0  -1.6 1.8 0  -1.4 1.8 0  -1.2 1.8 0  -1 1.8 0  -0.8 1.8 0  -0.6000000000000001 1.8 0  -0.3999999999999999 1.8 0  -0.2 1.8 0  0 1.8 0  0.2000000000000002 1.8 0  0.3999999999999999 1.8 0  0.6000000000000001 1.8 0  0.7999999999999998 1.8 0  1 1.8 0  1.2 1.8 0  1.4 1.8 0  1.6 1.8 0  1.8 1.8 0  2 1.8 0  -2 2 0  -1.8 2 0  -1.6 2 0  -1.4 2 0  -1.2 2 0  -1 2 0  -0.8 2 0  -0.6000000000000001 2 0  -0.3999999999999999 2 0  -0.2 2 0  0 2 0  0.2000000000000002 2 0  0.3999999999999999 2 0  0.6000000000000001 2 0  0.7999999999999998 2 0  1 2 0  1.2 2 0  1.4 2 0  1.6 2 0  1.8 2 0  2 2 0  </DataArray>
</Points>
<Cells>
[...]
<PointData  Scalars="f_18-1"> 
<DataArray  type="Float64"  Name="f_18-1"  format="ascii">1.1424401168453402e-08  9.8322393130467295e-09  -1.3141280285677227e-08  -6.0602423883494792e-08  -5.8976096992406217e-08  7.4907566930989939e-08  2.5983136349452408e-07  2.5074986433838726e-07  -5.1518830708563613e-08  -3.9459344480263189e-07  -4.5547253035570593e-07  -2.3344233932148044e-07  9.4965613393874768e-09  1.0001562075171076e-07  7.7051930921871158e-08  3.7891921099435127e-08  1.6182340627801469e-08  4.2992349960860094e-09  -1.1363687316588051e-10  -4.1250727813208952e-10  -2.4015819658403702e-10  8.1191152100660503e-09  -2.5631081700260597e-09  -2.8053917643854050e-08  -3.5497164392589550e-08  4.7944845745074166e-08  2.0422991274138848e-07  2.1210119647294180e-07  -1.3471727931431848e-07  -6.2723658283978249e-07  -7.3002169317838664e-07  -2.4274924781205128e-07  3.9571954460384194e-07  6.5157979736545853e-07  4.8280401427033058e-07  2.1172850055724155e-07  5.9500719549571517e-08  1.2904026286750015e-08  9.2810389055650239e-10  2.7542940830645991e-09  3.5778163333806995e-09  1.5698095843925379e-09  -4.5979420709738781e-09  -2.0842266460095685e-08  -2.9691268751724125e-08  6.0281485763441537e-08  2.5711994562668831e-07  2.5773748123275020e-07  -3.7430331107698100e-07  -1.4010155722857376e-06  -1.5790134135371117e-06  2.3840380301845487e-08  2.4384951044421055e-06  3.5423475102307366e-06  2.5128427517998406e-06  6.0554132651474462e-07  -5.8261867052145244e-07  -7.2173972564325451e-07  -4.2427393953588293e-07  -1.6670333715181296e-07  -1.9232364810339404e-08  7.7480793712097652e-09  2.3993324182552762e-09  -2.2825655875096993e-08  -2.2453875310865711e-08  3.6427415176084639e-08  2.2049554441151018e-07  2.6888216841122056e-07  -4.6861229879390930e-07  -2.0178180572839150e-06  -2.4321906885148985e-06  9.4816895751987973e-07  7.2671981501857830e-06  1.0833610048357097e-05  6.9199257889544541e-06  -2.0728886681209072e-06  -8.9899160953050544e-06  -9.7140227637080147e-06  -6.2707151508625566e-06  -2.7209643039146203e-06  -8.0406355344658953e-07  -1.1967145076116668e-07  -1.5683141331583074e-07  -1.0841058213744201e-07  -2.4536229773824342e-08  9.4081774614708462e-09  1.3392971932544805e-07  2.2187520801408280e-07  -3.5781279834467024e-07  -2.0406536504552895e-06  -2.8540034038830830e-06  1.9223127805216118e-06  1.3498495308453218e-05  2.1872866847396581e-05  1.1719258544680549e-05  -1.8134042369586724e-05  -4.7519839499200086e-05  -5.4228089586648433e-05  -3.6581796042824087e-05  -1.2237605483098523e-05  2.5081045620349469e-06  5.5155262141437385e-06  2.9321391156424342e-06  -4.4506006163671001e-07  -4.4344268758620504e-07  -4.8836964633274390e-10  5.2148647229075795e-08  1.3822845415732733e-07  -1.4998534163871588e-07  -1.4462816193827549e-06  -2.5955562417289406e-06  1.8055898580787046e-06  1.6648903151620958e-05  3.1256279165704788e-05  1.4437090278353379e-05  -5.3925576323850313e-05  -1.4025933617262264e-04  -1.7248464655674319e-04  -1.1195207877275262e-04  3.9729207647100762e-06  9.6898604320613238e-05  1.2060369148963477e-04  8.9079974792140757e-05  4.2518118540103035e-05  8.7633194501715721e-06  4.2895101261271302e-06  2.7435437299525820e-08  5.8437281028114733e-08  -1.5233741969195397e-08  -6.9459521161869370e-07  -1.7669931305714568e-06  7.0385456877743891e-07  1.3860741546122653e-05  3.2525092732157508e-05  1.6652921030912632e-05  -8.8934722929798950e-05  -2.6473496686670175e-04  -3.5886442785278377e-04  -2.0306400597871736e-04  2.0045145922807357e-04  6.5048018313764193e-04  8.9630435621254232e-04  8.3878069185333885e-04  5.7833152020353592e-04  2.9072972838507170e-04  9.7898613478637008e-05  5.7898931025924148e-05  3.2592525473677954e-08  1.6765886955123622e-08  -2.0922300920210606e-07  -8.4415840055307681e-07  -1.7812954979355999e-07  7.6363100201879028e-06  2.4380063514436068e-05  1.8700703006368878e-05  -8.8858508586742431e-05  -3.3685347539312566e-04  -5.3637790965919269e-04  -2.6318614925293125e-04  7.3603467322380786e-04  2.1947337212813705e-03  3.4829165188872912e-03  3.9802321499497655e-03  3.5125639953432399e-03  2.4326318101181169e-03  1.3027630292732995e-03  5.4248901827257611e-04  3.4529249783618349e-04  1.6252929222073302e-08  -3.0867491675156028e-08  -2.5981461617426905e-07  -3.1614946386427075e-07  2.6041841720844468e-06  1.2610562445298854e-05  1.6215647194358032e-05  -5.3801369447431241e-05  -2.9103242013198491e-04  -5.9238752817199962e-04  -3.4668825168332392e-04  1.3500782382577579e-03  4.5887864473345696e-03  8.2989092405503506e-03  1.1153861395191049e-02  1.1970890309525502e-02  1.0459927113540509e-02  7.4312377241126408e-03  4.2365415519437701e-03  2.0158575327325389e-03  1.3522223913738317e-03  -3.1368218181610366e-10  -4.3636992033430431e-08  -1.3960238502844329e-07  4.5415793960662321e-07  4.1916655817992480e-06  9.1656980439753508e-06  -1.8044486621815948e-05  -1.6673458270107474e-04  -4.6164460089502616e-04  -4.3338841811179821e-04  1.3554322290297411e-03  6.5538130782954130e-03  1.4110329494827984e-02  2.1008971725768801e-02  2.5803248881285386e-02  2.6869224788703443e-02  2.3636409990488882e-02  1.7360483428334916e-02  1.0505520834326758e-02  5.5148219246600088e-03  3.8662518137927092e-03  -5.4776501985462537e-09  -2.6988662041056603e-08  5.9271475583723001e-09  7.9153870708729879e-07  3.1134885923848872e-06  -1.9752067236323462e-06  -5.9444172513445453e-05  -2.3511853538449713e-04  -3.4467488689533517e-04  7.8437870136296235e-04  6.2443595303037442e-03  1.9157311586023205e-02  3.3631899798525780e-02  4.1746506638669946e-02  4.6791681005104682e-02  4.7513249373067050e-02  4.2257145646519716e-02  3.2118279670186975e-02  2.0524901982211210e-02  1.1635682042430911e-02  8.4736993446138543e-03  -3.8157743644736185e-09  -9.3136976892118454e-09  6.0181714120093308e-08  5.7767721332955143e-07  6.7387008086706730e-07  -1.1572252357953953e-05  -7.2453037643927139e-05  -1.6263965724918432e-04  2.6472566636733680e-04  3.5132333309031870e-03  1.5925480167400807e-02  4.6047908697978326e-02  7.3836799915442147e-02  7.3366012824582716e-02  7.0795676655834333e-02  6.9150568571244839e-02  6.1997713664729046e-02  4.8561678380188864e-02  3.2486681163599956e-02  1.9529616473963528e-02  1.4665565357011039e-02  -1.7276084377584415e-09  -2.0938877346048277e-09  4.4158424129312444e-08  2.3534688774462577e-07  -8.1458500133879583e-07  -1.2299144280616895e-05  -4.6088464777034760e-05  2.3435307468257189e-05  1.0910413136260202e-03  6.4753938005470421e-03  2.5506459237036216e-02  7.4860454556360048e-02  1.2714062568109136e-01  1.1532549783965856e-01  9.3168779246948413e-02  8.5720021103775440e-02  7.7083600146934342e-02  6.1764585725862256e-02  4.2711512322868024e-02  2.6696537785585610e-02  2.0462266718279498e-02  -6.8238682373053654e-10  -6.0867799371144790e-10  1.9737626714772506e-08  5.8205035362801283e-08  -8.7717982778088574e-07  -7.2562189298872963e-06  -1.1004409827734678e-05  1.6029934535797210e-04  1.4492617152684899e-03  7.0527125089357625e-03  2.5162265582876240e-02  7.1400702254049875e-02  1.3153863042437886e-01  1.2816924893381415e-01  1.0049853085679852e-01  9.1181249820980109e-02  8.2933841793473420e-02  6.7500304458993590e-02  4.7504932507707827e-02  3.0173944096227943e-02  2.3281896497069444e-02  -2.3351821317630011e-10  -3.5526102625283606e-10  7.2481479723511239e-09  1.4119412899343936e-08  -4.5443595678774126e-07  -2.8313706311429093e-06  5.7798383825153863e-06  1.6831971190573274e-04  1.1900053934300258e-03  5.2783749675509792e-03  1.7179887886675269e-02  4.3952745964424750e-02  8.3422752158190824e-02  9.6204086453854989e-02  8.6927692403499277e-02  8.3864118383443487e-02  7.7994998334310353e-02  6.3936666624708732e-02  4.4972112018698204e-02  2.8248360685940471e-02  2.1526985259379568e-02  -5.5844396551556358e-11  -2.2826066350994294e-10  2.4402099694816339e-09  8.6351654596827346e-09  -1.5724916219956352e-07  -8.5775349382575985e-07  6.6564722746040791e-06  1.0860060824854273e-04  7.2455182069019347e-04  3.1446585404531968e-03  9.9299816604400404e-03  2.3856894802268745e-02  4.3756930963761306e-02  5.8067524847385171e-02  6.4308127900659748e-02  6.7428312925174039e-02  6.3816098450357142e-02  5.2062797495778634e-02  3.5852341464471568e-02  2.1515121221368026e-02  1.5713333761674445e-02  -7.3024090065229294e-12  -1.3657000995790596e-10  6.4336129762672322e-10  5.7854467682494459e-09  -4.1813883707235141e-08  -3.1365567370451102e-07  2.7944290631542921e-06  4.8637951581076782e-05  3.4122232411719171e-04  1.5385824280758503e-03  4.9974424111037929e-03  1.2242974493291450e-02  2.3094160266803568e-02  3.4018469177671942e-02  4.2399852144927579e-02  4.6651596611873028e-02  4.4313510437538714e-02  3.5490908410055449e-02  2.3345118735173583e-02  1.2707884966440689e-02  8.3497790732962943e-03  9.2966109043083593e-13  -5.3602030861601120e-11  1.1009127838549361e-10  2.7586944637508287e-09  -8.9527655911766618e-09  -1.6075801490046025e-07  3.2062646325422303e-07  1.4552760965682408e-05  1.2154232097964980e-04  6.0375288992296999e-04  2.1054459058118748e-03  5.4872442123101032e-03  1.1050260371371549e-02  1.7699121206628244e-02  2.3569491471815574e-02  2.6562721101554831e-02  2.5067153127101883e-02  1.9385117466536740e-02  1.1736066039623346e-02  5.1913461585043211e-03  2.4395727364869713e-03  2.2888814515112023e-12  -5.4227548721750753e-12  -1.8534743591725930e-11  6.9004013667222213e-10  -3.1109237004875678e-10  -5.7840387368252194e-08  -2.1071141200997384e-07  2.3185788542785293e-06  3.0271863304864152e-05  1.7970938043132713e-04  7.0234104019055129e-04  1.9997532341788360e-03  4.3501654628169432e-03  7.4676610115017982e-03  1.0407926827258326e-02  1.1875372002841058e-02  1.0964714537888911e-02  7.9196944826815732e-03  4.0453700115938782e-03  8.9356917575221918e-04  -4.8507319154708455e-04  1.2817570258473675e-12  4.7454225912865405e-12  -4.3161949741423209e-11  -7.1144004146049914e-11  1.9295101823566242e-09  -3.5286205298863782e-10  -1.0245687637145164e-07  -3.0276177743417366e-07  3.0937917680581070e-06  3.3600992347286636e-05  1.6878201129190450e-04  5.5943491190542122e-04  1.3515173004797708e-03  2.4924612378974123e-03  3.5955664484701101e-03  4.0582433860949603e-03  3.4845465205423144e-03  2.0759078577645119e-03  5.1718292255280328e-04  -5.7735210867795861e-04  -1.0584603898286618e-03  3.7626398631139925e-13  2.8671351559666879e-12  -2.0755513082529040e-11  -9.9605104619627862e-11  1.2392189756968578e-09  5.6754406094110342e-09  -4.0624725029950989e-08  -3.6642441977385048e-07  -4.1383265881751877e-07  7.9053954581756492e-06  5.8176619747204727e-05  2.2569510744747145e-04  5.9486249058103948e-04  1.1486815191884805e-03  1.6663585868637585e-03  1.7882474071000052e-03  1.3028061641867086e-03  4.0584799936559292e-04  -4.1689256027867418e-04  -8.3297446558819180e-04  -9.3415096013190944e-04  </DataArray> 
</PointData> 
</Piece>
</UnstructuredGrid>
</VTKFile>