<?xml version="1.0"?>
<VTKFile type="UnstructuredGrid"  version="0.1"  >
<UnstructuredGrid>
<Piece  NumberOfPoints="961" NumberOfCells="1800">
<Points>
<DataArray  type="Float64"  NumberOfComponents="3"  format="ascii">0 0 0  0.03333333333333333 0 0  0.06666666666666667 0 0  0.1 0 0  0.1333333333333333 0 0  0.1666666666666667 0 0  0.2 0 0  0.2333333333333333 0 0  0.2666666666666667 0 0  0.3 0 0  0.3333333333333333 0 0  0.3666666666666666 0 0  0.4 0 0  0.4333333333333333 0 0  0.4666666666666667 0 0  0.5 0 0  0.5333333333333333 0 0  0.5666666666666667 0 0  0.6 0 0  0.6333333333333333 0 0  0.6666666666666666 0 0  0.7 0 0  0.7333333333333333 0 0  0.7666666666666667 0 0  0.8 0 0  0.8333333333333334 0 0  0.8666666666666667 0 0  0.9 0 0  0.9333333333333333 0 0  0.9666666666666667 0 0  1 0 0  0 0.03333333333333333 0  0.03333333333333333 0.03333333333333333 0  0.06666666666666667 0.03333333333333333 0  0.1 0.03333333333333333 0  0.1333333333333333 0.03333333333333333 0  0.1666666666666667 0.03333333333333333 0  0.2 0.03333333333333333 0  0.2333333333333333 0.03333333333333333 0  0.2666666666666667 0.03333333333333333 0  0.3 0.03333333333333333 0  0.3333333333333333 0.03333333333333333 0  0.3666666666666666 0.03333333333333333 0  0.4 0.03333333333333333 0  0.4333333333333333 0.03333333333333333 0  0.4666666666666667 0.03333333333333333 0  0.5 0.03333333333333333 0  0.5333333333333333 0.03333333333333333 0  0.5666666666666667 0.03333333333333333 0  0.6 0.03333333333333333 0  0.6333333333333333 0.03333333333333333 0  0.6666666666666666 0.03333333333333333 0  0.7 0.03333333333333333 0  0.7333333333333333 0.03333333333333333 0  0.7666666666666667 0.03333333333333333 0  0.8 0.03333333333333333 0  0.8333333333333334 0.03333333333333333 0  0.8666666666666667 0.03333333333333333 0  0.9 0.03333333333333333 0  0.9333333333333333 0.03333333333333333 0  0.9666666666666667 0.03333333333333333 0  1 0.03333333333333333 0  0 0.06666666666666667 0  0.03333333333333333 0.06666666666666667 0  0.06666666666666667 0.06666666666666667 0  0.1 0.06666666666666667 0  0.1333333333333333 0.06666666666666667 0  0.1666666666666667 0.06666666666666667 0  0.2 0.06666666666666667 0  0.2333333333333333 0.06666666666666667 0  0.2666666666666667 0.06666666666666667 0  0.3 0.06666666666666667 0  0.3333333333333333 0.06666666666666667 0  0.3666666666666666 0.06666666666666667 0  0.4 0.06666666666666667 0  0.4333333333333333 0.06666666666666667 0  0.4666666666666667 0.06666666666666667 0  0.5 0.06666666666666667 0  0.5333333333333333 0.06666666666666667 0  0.5666666666666667 0.06666666666666667 0  0.6 0.06666666666666667 0  0.6333333333333333 0.06666666666666667 0  0.6666666666666666 0.06666666666666667 0  0.7 0.06666666666666667 0  0.7333333333333333 0.06666666666666667 0  0.7666666666666667 0.06666666666666667 0  0.8 0.06666666666666667 0  0.8333333333333334 0.06666666666666667 0  0.8666666666666667 0.06666666666666667 0  0.9 0.06666666666666667 0  0.9333333333333333 0.06666666666666667 0  0.9666666666666667 0.06666666666666667 0  1 0.06666666666666667 0  0 0.1 0  0.03333333333333333 0.1 0  0.06666666666666667 0.1 0  0.1 0.1 0  0.1333333333333333 0.1 0  0.1666666666666667 0.1 0  0.2 0.1 0  0.2333333333333333 0.1 0  0.2666666666666667 0.1 0  0.3 0.1 0  0.3333333333333333 0.1 0  0.3666666666666666 0.1 0  0.4 0.1 0  0.4333333333333333 0.1 0  0.4666666666666667 0.1 0  0.5 0.1 0  0.5333333333333333 0.1 0  0.5666666666666667 0.1 0  0.6 0.1 0  0.6333333333333333 0.1 0  0.6666666666666666 0.1 0  0.7 0.1 0  0.7333333333333333 0.1 0  0.7666666666666667 0.1 0  0.8 0.1 0  0.8333333333333334 0.1 0  0.8666666666666667 0.1 0  0.9 0.1 0  0.9333333333333333 0.1 0  0.9666666666666667 0.1 0  1 0.1 0  0 0.1333333333333333 0  0.03333333333333333 0.1333333333333333 0  0.06666666666666667 0.1333333333333333 0  0.1 0.1333333333333333 0  0.1333333333333333 0.1333333333333333 0  0.1666666666666667 0.1333333333333333 0  0.2 0.1333333333333333 0  0.2333333333333333 0.1333333333333333 0  0.2666666666666667 0.1333333333333333 0  0.3 0.1333333333333333 0  0.3333333333333333 0.1333333333333333 0  0.3666666666666666 0.1333333333333333 0  0.4 0.1333333333333333 0  0.4333333333333333 0.1333333333333333 0  0.4666666666666667 0.1333333333333333 0  0.5 0.1333333333333333 0  0.5333333333333333 0.1333333333333333 0  0.5666666666666667 0.1333333333333333 0  0.6 0.1333333333333333 0  0.6333333333333333 0.1333333333333333 0  0.6666666666666666 0.1333333333333333 0  0.7 0.1333333333333333 0  0.7333333333333333 0.1333333333333333 0  0.7666666666666667 0.1333333333333333 0  0.8 0.1333333333333333 0  0.8333333333333334 0.1333333333333333 0  0.8666666666666667 0.1333333333333333 0  0.9 0.1333333333333333 0  0.9333333333333333 0.1333333333333333 0  0.9666666666666667 0.1333333333333333 0  1 0.1333333333333333 0  0 0.1666666666666667 0  0.03333333333333333 0.1666666666666667 0  0.06666666666666667 0.1666666666666667 0  0.1 0.1666666666666667 0  0.1333333333333333 0.1666666666666667 0  0.1666666666666667 0.1666666666666667 0  0.2 0.1666666666666667 0  0.2333333333333333 0.1666666666666667 0  0.2666666666666667 0.1666666666666667 0  0.3 0.1666666666666667 0  0.3333333333333333 0.1666666666666667 0  0.3666666666666666 0.1666666666666667 0  0.4 0.1666666666666667 0  0.4333333333333333 0.1666666666666667 0  0.4666666666666667 0.1666666666666667 0  0.5 0.1666666666666667 0  0.5333333333333333 0.1666666666666667 0  0.5666666666666667 0.1666666666666667 0  0.6 0.1666666666666667 0  0.6333333333333333 0.1666666666666667 0  0.6666666666666666 0.1666666666666667 0  0.7 0.1666666666666667 0  0.7333333333333333 0.1666666666666667 0  0.7666666666666667 0.1666666666666667 0  0.8 0.1666666666666667 0  0.8333333333333334 0.1666666666666667 0  0.8666666666666667 0.1666666666666667 0  0.9 0.1666666666666667 0  0.9333333333333333 0.1666666666666667 0  0.9666666666666667 0.1666666666666667 0  1 0.1666666666666667 0  0 0.2 0  0.03333333333333333 0.2 0  0.06666666666666667 0.2 0  0.1 0.2 0  0.1333333333333333 0.2 0  0.1666666666666667 0.2 0  0.2 0.2 0  0.2333333333333333 0.2 0  0.2666666666666667 0.2 0  0.3 0.2 0  0.3333333333333333 0.2 0  0.3666666666666666 0.2 0  0.4 0.2 0  0.4333333333333333 0.2 0  0.4666666666666667 0.2 0  0.5 0.2 0  0.5333333333333333 0.2 0  0.5666666666666667 0.2 0  0.6 0.2 0  0.6333333333333333 0.2 0  0.6666666666666666 0.2 0  0.7 0.2 0  0.7333333333333333 0.2 0  0.7666666666666667 0.2 0  0.8 0.2 0  0.8333333333333334 0.2 0  0.8666666666666667 0.2 0  0.9 0.2 0  0.9333333333333333 0.2 0  0.9666666666666667 0.2 0  1 0.2 0  0 0.2333333333333333 0  0.03333333333333333 0.2333333333333333 0  0.06666666666666667 0.2333333333333333 0  0.1 0.2333333333333333 0  0.1333333333333333 0.2333333333333333 0  0.1666666666666667 0.2333333333333333 0  0.2 0.2333333333333333 0  0.2333333333333333 0.2333333333333333 0  0.2666666666666667 0.2333333333333333 0  0.3 0.2333333333333333 0  0.3333333333333333 0.2333333333333333 0  0.3666666666666666 0.2333333333333333 0  0.4 0.2333333333333333 0  0.4333333333333333 0.2333333333333333 0  0.4666666666666667 0.2333333333333333 0  0.5 0.2333333333333333 0  0.5333333333333333 0.2333333333333333 0  0.5666666666666667 0.2333333333333333 0  0.6 0.2333333333333333 0  0.6333333333333333 0.2333333333333333 0  0.6666666666666666 0.2333333333333333 0  0.7 0.2333333333333333 0  0.7333333333333333 0.2333333333333333 0  0.7666666666666667 0.2333333333333333 0  0.8 0.2333333333333333 0  0.8333333333333334 0.2333333333333333 0  0.8666666666666667 0.2333333333333333 0  0.9 0.2333333333333333 0  0.9333333333333333 0.2333333333333333 0  0.9666666666666667 0.2333333333333333 0  1 0.2333333333333333 0  0 0.2666666666666667 0  0.03333333333333333 0.2666666666666667 0  0.06666666666666667 0.2666666666666667 0  0.1 0.2666666666666667 0  0.1333333333333333 0.2666666666666667 0  0.1666666666666667 0.2666666666666667 0  0.2 0.2666666666666667 0  0.2333333333333333 0.2666666666666667 0  0.2666666666666667 0.2666666666666667 0  0.3 0.2666666666666667 0  0.3333333333333333 0.2666666666666667 0  0.3666666666666666 0.2666666666666667 0  0.4 0.2666666666666667 0  0.4333333333333333 0.2666666666666667 0  0.4666666666666667 0.2666666666666667 0  0.5 0.2666666666666667 0  0.5333333333333333 0.2666666666666667 0  0.5666666666666667 0.2666666666666667 0  0.6 0.2666666666666667 0  0.6333333333333333 0.2666666666666667 0  0.6666666666666666 0.2666666666666667 0  0.7 0.2666666666666667 0  0.7333333333333333 0.2666666666666667 0  0.7666666666666667 0.2666666666666667 0  0.8 0.2666666666666667 0  0.8333333333333334 0.2666666666666667 0  0.8666666666666667 0.2666666666666667 0  0.9 0.2666666666666667 0  0.9333333333333333 0.2666666666666667 0  0.9666666666666667 0.2666666666666667 0  1 0.2666666666666667 0  0 0.3 0  0.03333333333333333 0.3 0  0.06666666666666667 0.3 0  0.1 0.3 0  0.1333333333333333 0.3 0  0.1666666666666667 0.3 0  0.2 0.3 0  0.2333333333333333 0.3 0  0.2666666666666667 0.3 0  0.3 0.3 0  0.3333333333333333 0.3 0  0.3666666666666666 0.3 0  0.4 0.3 0  0.4333333333333333 0.3 0  0.4666666666666667 0.3 0  0.5 0.3 0  0.5333333333333333 0.3 0  0.5666666666666667 0.3 0  0.6 0.3 0  0.6333333333333333 0.3 0  0.6666666666666666 0.3 0  0.7 0.3 0  0.7333333333333333 0.3 0  0.7666666666666667 0.3 0  0.8 0.3 0  0.8333333333333334 0.3 0  0.8666666666666667 0.3 0  0.9 0.3 0  0.9333333333333333 0.3 0  0.9666666666666667 0.3 0  1 0.3 0  0 0.3333333333333333 0  0.03333333333333333 0.3333333333333333 0  0.06666666666666667 0.3333333333333333 0  0.1 0.3333333333333333 0  0.1333333333333333 0.3333333333333333 0  0.1666666666666667 0.3333333333333333 0  0.2 0.3333333333333333 0  0.2333333333333333 0.3333333333333333 0  0.2666666666666667 0.3333333333333333 0  0.3 0.3333333333333333 0  0.3333333333333333 0.3333333333333333 0  0.3666666666666666 0.3333333333333333 0  0.4 0.3333333333333333 0  0.4333333333333333 0.3333333333333333 0  0.4666666666666667 0.3333333333333333 0  0.5 0.3333333333333333 0  0.5333333333333333 0.33333333333333
[...]
<PointData  Scalars="f_18-1"> 
<DataArray  type="Float64"  Name="f_18-1"  format="ascii">-1.4113239509513325e-11  -1.7408489648874090e-10  -7.1378731282016496e-10  -1.9801978013664899e-09  -3.8894644064023201e-09  -4.0645773803506840e-09  6.6894346112626505e-09  5.2832328680151242e-08  1.8627201598065569e-07  4.9869212833085479e-07  1.1258460114817987e-06  2.2327680272497013e-06  3.9718638612975848e-06  6.4171523674141752e-06  9.4945449458905681e-06  1.2940740076827751e-05  1.6321253484066662e-05  1.9117113625672073e-05  2.0857860117432454e-05  2.1253011551883807e-05  2.0270882064190545e-05  1.8135674244257047e-05  1.5249142016216786e-05  1.2072646424170665e-05  9.0151629313740311e-06  6.3615443853267992e-06  4.2530322346915207e-06  2.7117324009565679e-06  1.6910970852786170e-06  1.1372619737088960e-06  1.0632094742047443e-06  -1.7413727640053050e-10  -4.2829659249641467e-10  -1.2200344959019845e-09  -2.6180614797018468e-09  -3.2863590235061957e-09  3.0875541848019788e-09  3.5522956916722767e-08  1.3909185445267848e-07  4.0281132554605353e-07  9.7582638120733940e-07  2.0692939184801161e-06  3.9283165482643815e-06  6.7642573234218767e-06  1.0655432726401726e-05  1.5448120826550776e-05  2.0706172343128746e-05  2.5751272864542371e-05  2.9802713585341011e-05  3.2178729111797111e-05  3.2486681915930224e-05  3.0728383554352499e-05  2.7282217415648629e-05  2.2776393606160282e-05  1.7909460611127606e-05  1.3285772249498350e-05  9.3146686049641784e-06  6.1881839072761883e-06  3.9223500021380787e-06  2.4331405650940216e-06  1.6191973737441739e-06  1.4273829329417531e-06  -7.1277097821887617e-10  -1.2182772920968896e-09  -2.4801034706635818e-09  -3.0856377959586170e-09  3.9011877510928983e-09  4.1074951026055173e-08  1.6654775115418812e-07  5.0558428293677590e-07  1.2895034120623308e-06  2.8855435554629461e-06  5.7886444606761278e-06  1.0542520885378592e-05  1.7574704173587589e-05  2.6971745635978609e-05  3.8271922835281221e-05  5.0382327064935993e-05  6.1704740206500210e-05  7.0475618263239113e-05  7.5223275915597588e-05  7.5176553146615521e-05  7.0467552456105414e-05  6.2056401668119315e-05  5.1422918724155410e-05  4.0157068308485857e-05  2.9598163645462788e-05  2.0625152460174812e-05  1.3623262808088569e-05  8.5877914920978139e-06  5.2977031236434576e-06  3.4982246735825552e-06  3.0540993686870631e-06  -1.9722380096014886e-09  -2.6069058001859109e-09  -3.0729708565100486e-09  4.1698175456753434e-09  4.5118846627819549e-08  1.9214279738427318e-07  6.1495984037293182e-07  1.6568693550087825e-06  3.9216324527392898e-06  8.3290092161789956e-06  1.6070447039110309e-05  2.8394432247281231e-05  4.6198285662324125e-05  6.9502717412704560e-05  9.6999109076775116e-05  1.2591472978449325e-04  1.5237339920939780e-04  1.7223708327277433e-04  1.8218151303071308e-04  1.8061555652864133e-04  1.6809215456772163e-04  1.4706792102799922e-04  1.2113869447804429e-04  9.4069442567071515e-05  6.8965402258771609e-05  4.7811307717709576e-05  3.1423874457660194e-05  1.9715755653034954e-05  1.2109203149387625e-05  7.9583248814239574e-06  6.8968299496378640e-06  -3.8578092589517801e-09  -3.2483896770782604e-09  3.9408054416903152e-09  4.5122210791101694e-08  2.0162204107451968e-07  6.7961101755489580e-07  1.9327777877482727e-06  4.8362810191239248e-06  1.0871465865457017e-05  2.2220391483399708e-05  4.1616550301753543e-05  7.1805855122098207e-05  1.1459018583721588e-04  1.6965249853739692e-04  2.3360523473349142e-04  2.9980151482758799e-04  3.5926924253396449e-04  4.0268582252038688e-04  4.2280348606334953e-04  4.1644604481367345e-04  3.8531622766297356e-04  3.3533836805953599e-04  2.7486114341943485e-04  2.1245268019948194e-04  1.5506115144567622e-04  1.0702982954326938e-04  7.0044486602859862e-05  4.3766538671720206e-05  2.6779416058574622e-05  1.7529871135635420e-05  1.5081428219139285e-05  -3.9829961012465012e-09  3.1621524210358195e-09  4.1081919868363415e-08  1.9186965511030058e-07  6.7887322719890170e-07  2.0331977029704501e-06  5.3692880012526627e-06  1.2758083840326175e-05  2.7597322568743167e-05  5.4752796105932256e-05  1.0014562011102488e-04  1.6949920072097742e-04  2.6623234058393343e-04  3.8897184299832387e-04  5.2965059003780215e-04  6.7331677768121573e-04  8.0034940740170049e-04  8.9081551667053447e-04  9.2965214270118203e-04  9.1079957986841653e-04  8.3871993198514957e-04  7.2679246101273306e-04  5.9334111661641840e-04  4.5688231677227945e-04  3.3223205174823521e-04  2.2848355476700003e-04  1.4898500321460127e-04  9.2761543483573468e-05  5.6569486754230814e-05  3.6898072618481146e-05  3.1532542936387718e-05  6.8097303140054808e-09  3.5532843375324247e-08  1.6607347640394648e-07  6.1297926616227559e-07  1.9276733993107941e-06  5.3611797869463863e-06  1.3443185073445652e-05  3.0734993886114984e-05  6.4529497889254204e-05  1.2502434004575165e-04  2.2431976087814194e-04  3.7370896275789722e-04  5.7931359437561765e-04  8.3710332662193920e-04  1.1292870990286896e-03  1.4242999884113297e-03  1.6816583218640345e-03  1.8609969893820684e-03  1.9325391507796651e-03  1.8852308026604113e-03  1.7294783016284371e-03  1.4935855612279170e-03  1.2155065863952525e-03  9.3315441675167652e-04  6.7656318666587387e-04  4.6390590293914378e-04  3.0158176106927031e-04  1.8720684034495601e-04  1.1383529052555992e-04  7.4011118763473130e-05  6.2869988166739269e-05  5.2766499056662833e-08  1.3850509979742934e-07  5.0293345585474741e-07  1.6483493885672571e-06  4.8148701873428821e-06  1.2716392242143727e-05  3.0680855935676663e-05  6.8081032144515051e-05  1.3958355419958925e-04  2.6528582213754590e-04  4.6851844566688340e-04  7.7037559872065206e-04  1.1812062168674046e-03  1.6911850430949178e-03  2.2638154258993654e-03  2.8365214412964007e-03  3.3305335028728025e-03  3.6685087858383848e-03  3.7945110914893725e-03  3.6892119570407014e-03  3.3746367601722644e-03  2.9069042569436140e-03  2.3601485686338729e-03  1.8078415549080910e-03  1.3077973005469533e-03  8.9465352383776356e-04  5.8019799761493658e-04  3.5925979410336625e-04  2.1791241015934820e-04  1.4126956146960108e-04  1.1936514178355359e-04  1.8516076953522507e-07  3.9996805352574534e-07  1.2799898044820364e-06  3.8939523873373746e-06  1.0803148508888570e-05  2.7455801105564159e-05  6.4294344297648949e-05  1.3931818992583790e-04  2.8019010270101180e-04  5.2417038947582238e-04  9.1370174700538078e-04  1.4860785083754193e-03  2.2578280384382247e-03  3.2078363833667155e-03  4.2662552460776279e-03  5.3165443137846288e-03  6.2142451720424222e-03  6.8192727410565698e-03  7.0318815526625913e-03  6.8195954827881154e-03  6.2251482327493812e-03  5.3528407363752006e-03  4.3391293577511730e-03  3.3186427538995067e-03  2.3969509356813290e-03  1.6369611055224403e-03  1.0596252083296081e-03  6.5480718014594100e-04  3.9634387096173113e-04  2.5628574804561875e-04  2.1553034452137843e-04  4.9431951586623024e-07  9.6681544744827570e-07  2.8588374619902733e-06  8.2553382594596216e-06  2.2041119844893230e-05  5.4372427904845611e-05  1.2433573154956024e-04  2.6427733168474352e-04  5.2316321789038563e-04  9.6599291970349635e-04  1.6656035127088859e-03  2.6843877118585989e-03  4.0473002084547519e-03  5.7133149382052120e-03  7.5574614205780920e-03  9.3757753801660265e-03  1.0918665086343151e-02  1.1946533326678808e-02  1.2290755783341220e-02  1.1898815982265974e-02  1.0847150655278396e-02  9.3174614948579766e-03  7.5462695911126827e-03  5.7666121432955048e-03  4.1611638679585885e-03  2.8386725209565799e-03  1.8350730950258791e-03  1.1322493308757789e-03  6.8413294454966543e-04  4.4137254985223594e-04  3.6965334639586057e-04  1.1137849990783926e-06  2.0467176210695568e-06  5.7260753755849722e-06  1.5903599069764326e-05  4.1215302879595567e-05  9.9286244454150401e-05  2.2270332137579952e-04  4.6591644829023455e-04  9.1030791217062697e-04  1.6625692874765198e-03  2.8405718568287751e-03  4.5430502696596937e-03  6.8057114085795624e-03  9.5555863838896835e-03  1.2583350498312572e-02  1.5553389954531921e-02  1.8059513070915339e-02  1.9715072680551164e-02  2.0250190406613345e-02  1.9583138026252046e-02  1.7840412616388260e-02  1.5318693601216469e-02  1.2403789939605857e-02  9.4764211790668088e-03  6.8358086902195782e-03  4.6606706689784382e-03  3.0103934032740471e-03  1.8553253922546696e-03  1.1194267660140946e-03  7.2074790823723194e-04  6.0145551551210737e-04  2.2059169639274436e-06  3.8807814382248474e-06  1.0416385296734266e-05  2.8066099858823310e-05  7.1024388240804648e-05  1.6782115928297420e-04  3.7049377042053510e-04  7.6496433802652585e-04  1.4782659091745760e-03  2.6751409031847435e-03  4.5353503906742755e-03  7.2066274392797057e-03  1.0737670508275328e-02  1.5009055290735509e-02  1.9692293435935981e-02  2.4267824883939040e-02  2.8112808162639599e-02  3.0638794473357298e-02  3.1437366595605400e-02  3.0386345215589441e-02  2.7679958528342655e-02  2.3772295153128384e-02  1.9255372508824389e-02  1.4715840470661408e-02  1.0617211954129593e-02  7.2383170002167070e-03  4.6734410169278588e-03  2.8780509648477543e-03  1.7344685936831216e-03  1.1147200163352253e-03  9.2728709333928590e-04  3.9211222314045432e-06  6.6777070473280002e-06  1.7352116709648516e-05  4.5629641057908884e-05  1.1324957312024466e-04  2.6335672099193550e-04  5.7375510032362366e-04  1.1716239233377681e-03  2.2432308122791989e-03  4.0278100081508296e-03  6.7835508884608190e-03  1.0719380432881951e-02  1.5899157848990261e-02  2.2142682678837445e-02  2.8966948241312775e-02  3.5614710197243486e-02  4.1185446523791802e-02  4.4834327260615169e-02  4.5977286931854537e-02  4.4439359210499900e-02  4.0497964805119351e-02  3.4805003091222038e-02  2.8215080624427253e-02  2.1580473353035506e-02  1.5579658403352663e-02  1.0625008846638319e-02  6.8597355361386600e-03  4.2224032324045908e-03  2.5421802311022122e-03  1.6310916564825234e-03  1.3530721797664173e-03  6.3337063686469200e-06  1.0516919333975401e-05  2.6624116093169164e-05  6.8628412408607218e-05  1.6761008967293840e-04  3.8460551365042194e-04  8.2863531470236214e-04  1.6763874363814038e-03  3.1845328538264973e-03  5.6798903717328528e-03  9.5117479145978828e-03  1.4959318355314220e-02  2.2103463851965460e-02  3.0692696199527279e-02  4.0061553936135821e-02  4.9171009310080983e-02  5.6792810619412465e-02  6.1781894292826205e-02  6.3348576031375586e-02  6.1253285700503708e-02  5.5865576708384740e-02  4.8064295905219129e-02  3.9010630450874176e-02  2.9871967196881698e-02  2.1586228024857438e-02  1.4730690226228686e-02  9.5124514450913421e-03  5.8535841342744642e-03  3.5212517135910205e-03  2.2556318082323805e-03  1.8665307830875212e-03  9.3733295404112486e-06  1.5251170756228666e-05  3.7787612299586585e-05  9.5797883204468861e-05  2.3082484679655524e-04  5.2373685020225779e-04  1.1178251614830717e-03  2.2436653091152284e-03  4.2339369174459220e-03  7.5091935365276244e-03  1.2515224260861515e-02  1.9604825278755719e-02  2.8876046713039047e-02  4.0001560691755977e-02  5.2121470920389552e-02  6.3895048990783215e-02  7.3742939459007603e-02  8.0198856780373848e-02  8.2251648170775668e-02  7.9587471866043799e-02  7.2666471465502008e-02  6.2603120041836421e-02  5.0884058675711073e-02  3.9017536562175943e-02  2.8227707866879562e-02  1.9278475292122347e-02  1.2453581359009796e-02  7.6619547051045012e-03  4.6052077674107184e-03  2.9451295441790290e-03  2.4315646043300142e-03  1.2783588986258429e-05  2.0455341227543786e-05  4.9776506851677801e-05  1.2443152189831451e-04  2.9640077306504643e-04  6.6613100841372624e-04  1.4104271774764364e-03  2.8121601423595323e-03  5.2773652472072694e-03  9.3167206678173454e-03  1.5468359599764683e-02  2.4154446620184775e-02  3.5487196213260304e-02  4.9064993655642805e-02  6.3843407548239084e-02  7.8197305527082192e-02  9.0214502146777911e-02  9.8120205858247128e-02  1.0068556749463503e-01  9.7516468582840507e-02  8.9149474692247058e-02  7.6916712403222010e-02  6.2614241919177860e-02  4.8081572525726729e-02  3.4827208718469567e-02  2.3805612582867831e-02  1.5383497648851951e-02  9.4623813594192103e-03  5.6819802771791439e-03  3.6272381152532554e-03  2.9882560305910578e-03  1.6137930181504665e-05  2.5463172727185650e-05  6.1020243445222140e-05  1.5071826283006849e-04  3.5551069781612852e-04  7.9246698265330402e-04  1.6665334867316105e-03  3.3041465624936615e-03  6.1722607907903279e-03  1.0856607866157299e-02  1.7972584334495487e-02  2.7999680679731222e-02  4.1059019983754108e-02  5.6684131694723534e-02  7.3680234609717080e-02  9.0196034748161444e-02  1.0405142093601873e-01  1.1321428988479945e-01  1.1626509426345408e-01  1.1272959169250811e-01  1.0319516978074135e-01  8.9166114477831154e-02  7.2693462269841747e-02  5.5897215824045415e-02  4.0532845023922376e-02  2.7725385155602213e-02  1.7920339838019782e-02  1.1018355433233297e-02  6.6085421877880926e-03  4.2100547450886414e-03  3.4608889101829326e-03  1.8923340089171825e-05  2.9502412487803923e-05  6.9772962809320059e-05  1.7055813537348306e-04  3.9890911704112264e-04  8.8295423070370411e-04  1.8460077167806227e-03  3.6425582520332885e-03  6.7786200740271099e-03  1.1888469013421145e-02  1.9638431632639768e-02  3.0546153799995299e-02  4.4737707431821976e-02  6.1703462484351407e-02  8.0155856317033952e-02  9.8108165417121751e-02  1.1321406320820807e-01  1.2326927469126615e-01  1.2671474677492975e-01  1.2300605543953716e-01  1.1274904131569533e-01  9.7552097264435006e-02  7.9632639300697569e-02  6.1301688492689625e-02  4.4489030568457211e-02  3.0444888440976842e-02  1.9676695317272636e-02  1.2089644864685422e-02  7.2399456376783756e-03  4.6010017680795925e-03  3.7736115900257488e-03  2.0671100671039785e-05  3.1892990793279580e-05  7.4564200691949129e-05  1.8062435494465895e-04  4.1933175554699839e-04  9.2247332565489231e-04  1.9189129101715744e-03  3.7710157057356006e-03  6.9954067861312695e-03  1.2239969435238390e-02  2.0186724976028636e-02  3.1366785937653026e-02  4.5910180204351309e-02  6.3298308634831130e-02  8.2225325507751704e-02  1.0067703987742709e-01  1.1626197807454915e-01  1.2671149407631016e-01  1.3039900939261254e-01  1.2673167357131382e-01  1.1630057623677288e-01  1.0073685706123647e-01  8.2312728014160633e-02  6.3412837626735594e-02  4.6041646556081867e-02  3.1508422342705913e-02  2.0354135707236220e-02  1.2491502096550047e-02  7.4654751397009349e-03  4.7302386628184957e-03  3.8697749900546766e-03  2.1087936749628167e-05  3.2237132938765183e-05  7.4608623271429111e-05  1.7928788368768510e-04  4.1350997752926316e-04  9.0476108122699293e-04  1.8737921825487216e-03  3.6694593993062082e-03  6.7888358832808773e-03  1.1856027171815749e-02  1.9530361589338779e-02  3.0329170291404008e-02  4.4385970860463399e-02  6.1211349983739782e-02  7.9559400146390610e-02  9.7497882587030044e-02  1.1271457628475454e-01  1.2299335377806860e-01  1.2672422958361751e-01  1.2329728455878436e-01  1.1325960627941238e-01  9.8181622813247341e-02  8.0271397761406557e-02  6.1858802111848084e-02  4.4911144707103189e-02  3.0720032885342474e-02  1.9824730795950669e-02  1.2145923649914394e-02  7.2398818964604233e-03  4.5707169315781226e-03  3.7283930757655692e-03  2.0136368103177190e-05  3.0527333408763225e-05  7.0015728480034501e-05  1.6704639330807891e-04  3.8302091951822293e-04  8.3402046584019280e-04  1.7205790529810222e-03  3.3591876433934080e-03  6.2007984542780514e-03  1.0812628531742200e-02  1.7796708404333058e-02  2.7630770839047879e-02  4.0448728934749198e-02  5.5821142163999263e-02  7.2628776092461267e-02  8.9117554018297435e-02  1.0316790932893791e-01  1.1272736236444335e-01  1.1628639572079767e-01  1.1325339730977477e-01  1.0410933369543481e-01  9.0289602867487190e-02  7.3828762103784917e-02  5.6881767818506873e-02  4.1272590962051658e-02  2.8201080713252689e-02  1.8169609744561829e-02  1.1105795104188460e-02  6.5978094951358139e-03  4.1471066173668835e-03  3.3712811644618429e-03  1.8034140754254515e-05  2.7132110562132570e-05  6.1723058205127707e-05  1.4630369395729487e-04  3.3367300737302671e-04  7.2339721229954575e-04  1.4871563511162725e-03  2.8956763554318157e-03  5.3348919982109692e-03  9.2913803667308715e-03  1.5284409880071985e-02  2.3731551597084857e-02  3.4760965428801312e-02  4.8020363468876011e-02  6.2561789774363871e-02  7.6879500991687097e-02  8.9134388034685583e-02  9.7527425734278639e-02  1.0072023274523480e-01  9.8172565943603476e-02  9.0286249598671417e-02  7.8305999940481402e-02  6.4008063621498967e-02  4.9278032402208904e-02  3.5712445226147749e-02  2.4360381135051755e-02  1.5659060776486627e-02  9.5419245207848617e-03  5.6452597128154071e-03  3.5296670421730097e-03  2.8576554116187341e-03  1.5177843774197229e-05  2.2672103251639480e-05  5.1193935450608111e-05  1.2061854957107105e-04  2.7373575458488811e-04  5.9105714747751564e-04  1.2111855187236279e-03  2.3525697697571847e-03  4.3268753464718417e-03  7.5280959985050836e-03  1.2379146950755862e-02  1.9224820760975408e-02  2.8180304299936912e-02  3.8973998877276435e-02  5.0848059875430701e-02  6.2581169919155702e-02  7.2665317244496541e-02  7.9610873204420063e-02  8.2297804058733784e-02  8.0262602412607326e-02  7.3824545608023151e-02  6.4006674069508981e-02  5.2276652532601685e-02  4.0193722686519190e-02  2.9076119465321130e-02  1.9786645780033321e-02  1.2680659047601652e-02  7.6972011096752948e-03  4.5309068168290154e-03  2.8151007227424202e-03  2.2679795945593426e-03  1.2025886371757105e-05  1.7841778847629898e-05  4.0010078465975475e-05  9.3738572772304984e-05  2.1174203264702875e-04  4.5544748344649588e-04  9.3044589488130481e-04  1.8030827094497675e-03  3.3108943676993254e-03  5.7549661025593805e-03  9.4603054024344768e-03  1.4695323107493087e-02  2.1556406165894965e-02  2.9845881916545258e-02  3.8991358025460422e-02  4.8057279135264919e-02  5.5876501517133650e-02  6.1285629909757965e-02  6.3401666089472078e-02  6.1851938787581995e-02  5.6878134686437085e-02  4.9276460163550757e-02  4.0193252851323483e-02  3.0845637701993826e-02  2.2259364940491803e-02  1.5101436662181103e-02  9.6414096000490435e-03  5.8247006890689490e-03  3.4079197706951207e-03  2.1015771227547750e-03  1.6831373910852004e-03  8.9864189850639830e-06  1.3244602394092152e-05  2.9509693693981084e-05  6.8768055262263179e-05  1.5464049368960997e-04  3.3138768062892924e-04  6.7497502184384907e-04  1.3050088997634416e-03  2.3923976421388916e-03  4.1542714710304770e-03  6.8261621593908367e-03  1.0604747518733741e-02  1.5564796201584109e-02  2.1569873531223589e-02  2.8211107208839105e-02  3.4811699405984060e-02  4.0519567799008754e-02  4.4478681121139146e-02  4.6034356933859703e-02  4.4906547997219819e-02  4.1270030110936544e-02  3.5711214332908553e-02  2.9075635478315608e-02  2.2259233655075015e-02  1.6013535680286198e-02  1.0822863602702137e-02  6.8778453809684422e-03  4.1314844371911959e-03  2.3998503504301829e-03  1.4668695013105545e-03  1.1664191421394438e-03  6.3449287338456040e-06  9.2911207858055412e-06  2.0575070550860949e-05  4.7700601887000547e-05  1.0679570957261616e-04  2.2801666630237847e-04  4.6303195364736803e-04  8.9312326174159032e-04  1.6344628716267419e-03  2.8348814490385989e-03  4.6553372422849090e-03  7.2313753006786850e-03  1.0616662965415326e-02  1.4721433493831254e-02  1.9269018805117923e-02  2.3796735869639353e-02  2.7717754691643653e-02  3.0438907519497727e-02  3.1504169031971570e-02  3.0717305157804201e-02  2.8199516163481906e-02  2.4359589140129742e-02  1.9786300570959162e-02  1.5101314031561810e-02  1.0822833733798474e-02  7.2809980366894808e-03  4.6012764184709225e-03  2.7451682420767910e-03  1.5809689013699480e-03  9.5624828856653626e-04  7.5380313160590157e-04  4.2439713376618750e-06  6.1754796609512687e-06  1.3596515285050455e-05  3.1365286819380538e-05  6.9921596902833134e-05  1.4874166613011066e-04  3.0112889693981859e-04  5.7940840720900849e-04  1.0583393856895839e-03  1.8331231253679121e-03  3.0076470160775772e-03  4.6698572983406598e-03  6.8554122041594584e-03  9.5076391898178715e-03  1.2448649504226063e-02  1.5378855239427277e-02  1.7916337679345019e-02  1.9673545985663343e-02  2.0351882150223845e-02  1.9823271065423503e-02  1.8168758968439370e-02  1.5658618583068808e-02  1.2680457078597959