<?xml version="1.0"?>
<VTKFile type="UnstructuredGrid"  version="0.1"  >
<UnstructuredGrid>
<Piece  NumberOfPoints="961" NumberOfCells="1800">
<Points>
<DataArray  type="Float64"  NumberOfComponents="3"  format="ascii">0 0 0  0.03333333333333333 0 0  0.06666666666666667 0 0  0.1 0 0  0.1333333333333333 0 0  0.1666666666666667 0 0  0.2 0 0  0.2333333333333333 0 0  0.2666666666666667 0 0  0.3 0 0  0.3333333333333333 0 0  0.3666666666666666 0 0  0.4 0 0  0.4333333333333333 0 0  0.4666666666666667 0 0  0.5 0 0  0.5333333333333333 0 0  0.5666666666666667 0 0  0.6 0 0  0.6333333333333333 0 0  0.6666666666666666 0 0  0.7 0 0  0.7333333333333333 0 0  0.7666666666666667 0 0  0.8 0 0  0.8333333333333334 0 0  0.8666666666666667 0 0  0.9 0 0  0.9333333333333333 0 0  0.9666666666666667 0 0  1 0 0  0 0.03333333333333333 0  0.03333333333333333 0.03333333333333333 0  0.06666666666666667 0.03333333333333333 0  0.1 0.03333333333333333 0  0.1333333333333333 0.03333333333333333 0  0.1666666666666667 0.03333333333333333 0  0.2 0.03333333333333333 0  0.2333333333333333 0.03333333333333333 0  0.2666666666666667 0.03333333333333333 0  0.3 0.03333333333333333 0  0.3333333333333333 0.03333333333333333 0  0.3666666666666666 0.03333333333333333 0  0.4 0.03333333333333333 0  0.4333333333333333 0.03333333333333333 0  0.4666666666666667 0.03333333333333333 0  0.5 0.03333333333333333 0  0.5333333333333333 0.03333333333333333 0  0.5666666666666667 0.03333333333333333 0  0.6 0.03333333333333333 0  0.6333333333333333 0.03333333333333333 0  0.6666666666666666 0.03333333333333333 0  0.7 0.03333333333333333 0  0.7333333333333333 0.03333333333333333 0  0.7666666666666667 0.03333333333333333 0  0.8 0.03333333333333333 0  0.8333333333333334 0.03333333333333333 0  0.8666666666666667 0.03333333333333333 0  0.9 0.03333333333333333 0  0.9333333333333333 0.03333333333333333 0  0.9666666666666667 0.03333333333333333 0  1 0.03333333333333333 0  0 0.06666666666666667 0  0.03333333333333333 0.06666666666666667 0  0.06666666666666667 0.06666666666666667 0  0.1 0.06666666666666667 0  0.1333333333333333 0.06666666666666667 0  0.1666666666666667 0.06666666666666667 0  0.2 0.06666666666666667 0  0.2333333333333333 0.06666666666666667 0  0.2666666666666667 0.06666666666666667 0  0.3 0.06666666666666667 0  0.3333333333333333 0.06666666666666667 0  0.3666666666666666 0.06666666666666667 0  0.4 0.06666666666666667 0  0.4333333333333333 0.06666666666666667 0  0.4666666666666667 0.06666666666666667 0  0.5 0.06666666666666667 0  0.5333333333333333 0.06666666666666667 0  0.5666666666666667 0.06666666666666667 0  0.6 0.06666666666666667 0  0.6333333333333333 0.06666666666666667 0  0.6666666666666666 0.06666666666666667 0  0.7 0.06666666666666667 0  0.7333333333333333 0.06666666666666667 0  0.7666666666666667 0.06666666666666667 0  0.8 0.06666666666666667 0  0.8333333333333334 0.06666666666666667 0  0.8666666666666667 0.06666666666666667 0  0.9 0.06666666666666667 0  0.9333333333333333 0.06666666666666667 0  0.9666666666666667 0.06666666666666667 0  1 0.06666666666666667 0  0 0.1 0  0.03333333333333333 0.1 0  0.06666666666666667 0.1 0  0.1 0.1 0  0.1333333333333333 0.1 0  0.1666666666666667 0.1 0  0.2 0.1 0  0.2333333333333333 0.1 0  0.2666666666666667 0.1 0  0.3 0.1 0  0.3333333333333333 0.1 0  0.3666666666666666 0.1 0  0.4 0.1 0  0.4333333333333333 0.1 0  0.4666666666666667 0.1 0  0.5 0.1 0  0.5333333333333333 0.1 0  0.5666666666666667 0.1 0  0.6 0.1 0  0.6333333333333333 0.1 0  0.6666666666666666 0.1 0  0.7 0.1 0  0.7333333333333333 0.1 0  0.7666666666666667 0.1 0  0.8 0.1 0  0.8333333333333334 0.1 0  0.8666666666666667 0.1 0  0.9 0.1 0  0.9333333333333333 0.1 0  0.9666666666666667 0.1 0  1 0.1 0  0 0.1333333333333333 0  0.03333333333333333 0.1333333333333333 0  0.06666666666666667 0.1333333333333333 0  0.1 0.1333333333333333 0  0.1333333333333333 0.1333333333333333 0  0.1666666666666667 0.1333333333333333 0  0.2 0.1333333333333333 0  0.2333333333333333 0.1333333333333333 0  0.2666666666666667 0.1333333333333333 0  0.3 0.1333333333333333 0  0.3333333333333333 0.1333333333333333 0  0.3666666666666666 0.1333333333333333 0  0.4 0.1333333333333333 0  0.4333333333333333 0.1333333333333333 0  0.4666666666666667 0.1333333333333333 0  0.5 0.1333333333333333 0  0.5333333333333333 0.1333333333333333 0  0.5666666666666667 0.1333333333333333 0  0.6 0.1333333333333333 0  0.6333333333333333 0.1333333333333333 0  0.6666666666666666 0.1333333333333333 0  0.7 0.1333333333333333 0  0.7333333333333333 0.1333333333333333 0  0.7666666666666667 0.1333333333333333 0  0.8 0.1333333333333333 0  0.8333333333333334 0.1333333333333333 0  0.8666666666666667 0.1333333333333333 0  0.9 0.1333333333333333 0  0.9333333333333333 0.1333333333333333 0  0.9666666666666667 0.1333333333333333 0  1 0.1333333333333333 0  0 0.1666666666666667 0  0.03333333333333333 0.1666666666666667 0  0.06666666666666667 0.1666666666666667 0  0.1 0.1666666666666667 0  0.1333333333333333 0.1666666666666667 0  0.1666666666666667 0.1666666666666667 0  0.2 0.1666666666666667 0  0.2333333333333333 0.1666666666666667 0  0.2666666666666667 0.1666666666666667 0  0.3 0.1666666666666667 0  0.3333333333333333 0.1666666666666667 0  0.3666666666666666 0.1666666666666667 0  0.4 0.1666666666666667 0  0.4333333333333333 0.1666666666666667 0  0.4666666666666667 0.1666666666666667 0  0.5 0.1666666666666667 0  0.5333333333333333 0.1666666666666667 0  0.5666666666666667 0.1666666666666667 0  0.6 0.1666666666666667 0  0.6333333333333333 0.1666666666666667 0  0.6666666666666666 0.1666666666666667 0  0.7 0.1666666666666667 0  0.7333333333333333 0.1666666666666667 0  0.7666666666666667 0.1666666666666667 0  0.8 0.1666666666666667 0  0.8333333333333334 0.1666666666666667 0  0.8666666666666667 0.1666666666666667 0  0.9 0.1666666666666667 0  0.9333333333333333 0.1666666666666667 0  0.9666666666666667 0.1666666666666667 0  1 0.1666666666666667 0  0 0.2 0  0.03333333333333333 0.2 0  0.06666666666666667 0.2 0  0.1 0.2 0  0.1333333333333333 0.2 0  0.1666666666666667 0.2 0  0.2 0.2 0  0.2333333333333333 0.2 0  0.2666666666666667 0.2 0  0.3 0.2 0  0.3333333333333333 0.2 0  0.3666666666666666 0.2 0  0.4 0.2 0  0.4333333333333333 0.2 0  0.4666666666666667 0.2 0  0.5 0.2 0  0.5333333333333333 0.2 0  0.5666666666666667 0.2 0  0.6 0.2 0  0.6333333333333333 0.2 0  0.6666666666666666 0.2 0  0.7 0.2 0  0.7333333333333333 0.2 0  0.7666666666666667 0.2 0  0.8 0.2 0  0.8333333333333334 0.2 0  0.8666666666666667 0.2 0  0.9 0.2 0  0.9333333333333333 0.2 0  0.9666666666666667 0.2 0  1 0.2 0  0 0.2333333333333333 0  0.03333333333333333 0.2333333333333333 0  0.06666666666666667 0.2333333333333333 0  0.1 0.2333333333333333 0  0.1333333333333333 0.2333333333333333 0  0.1666666666666667 0.2333333333333333 0  0.2 0.2333333333333333 0  0.2333333333333333 0.2333333333333333 0  0.2666666666666667 0.2333333333333333 0  0.3 0.2333333333333333 0  0.3333333333333333 0.2333333333333333 0  0.3666666666666666 0.2333333333333333 0  0.4 0.2333333333333333 0  0.4333333333333333 0.2333333333333333 0  0.4666666666666667 0.2333333333333333 0  0.5 0.2333333333333333 0  0.5333333333333333 0.2333333333333333 0  0.5666666666666667 0.2333333333333333 0  0.6 0.2333333333333333 0  0.6333333333333333 0.2333333333333333 0  0.6666666666666666 0.2333333333333333 0  0.7 0.2333333333333333 0  0.7333333333333333 0.2333333333333333 0  0.7666666666666667 0.2333333333333333 0  0.8 0.2333333333333333 0  0.8333333333333334 0.2333333333333333 0  0.8666666666666667 0.2333333333333333 0  0.9 0.2333333333333333 0  0.9333333333333333 0.2333333333333333 0  0.9666666666666667 0.2333333333333333 0  1 0.2333333333333333 0  0 0.2666666666666667 0  0.03333333333333333 0.2666666666666667 0  0.06666666666666667 0.2666666666666667 0  0.1 0.2666666666666667 0  0.1333333333333333 0.2666666666666667 0  0.1666666666666667 0.2666666666666667 0  0.2 0.2666666666666667 0  0.2333333333333333 0.2666666666666667 0  0.2666666666666667 0.2666666666666667 0  0.3 0.2666666666666667 0  0.3333333333333333 0.2666666666666667 0  0.3666666666666666 0.2666666666666667 0  0.4 0.2666666666666667 0  0.4333333333333333 0.2666666666666667 0  0.4666666666666667 0.2666666666666667 0  0.5 0.2666666666666667 0  0.5333333333333333 0.2666666666666667 0  0.5666666666666667 0.2666666666666667 0  0.6 0.2666666666666667 0  0.6333333333333333 0.2666666666666667 0  0.6666666666666666 0.2666666666666667 0  0.7 0.2666666666666667 0  0.7333333333333333 0.2666666666666667 0  0.7666666666666667 0.2666666666666667 0  0.8 0.2666666666666667 0  0.8333333333333334 0.2666666666666667 0  0.8666666666666667 0.2666666666666667 0  0.9 0.2666666666666667 0  0.9333333333333333 0.2666666666666667 0  0.9666666666666667 0.2666666666666667 0  1 0.2666666666666667 0  0 0.3 0  0.03333333333333333 0.3 0  0.06666666666666667 0.3 0  0.1 0.3 0  0.1333333333333333 0.3 0  0.1666666666666667 0.3 0  0.2 0.3 0  0.2333333333333333 0.3 0  0.2666666666666667 0.3 0  0.3 0.3 0  0.3333333333333333 0.3 0  0.3666666666666666 0.3 0  0.4 0.3 0  0.4333333333333333 0.3 0  0.4666666666666667 0.3 0  0.5 0.3 0  0.5333333333333333 0.3 0  0.5666666666666667 0.3 0  0.6 0.3 0  0.6333333333333333 0.3 0  0.6666666666666666 0.3 0  0.7 0.3 0  0.7333333333333333 0.3 0  0.7666666666666667 0.3 0  0.8 0.3 0  0.8333333333333334 0.3 0  0.8666666666666667 0.3 0  0.9 0.3 0  0.9333333333333333 0.3 0  0.9666666666666667 0.3 0  1 0.3 0  0 0.3333333333333333 0  0.03333333333333333 0.3333333333333333 0  0.06666666666666667 0.3333333333333333 0  0.1 0.3333333333333333 0  0.1333333333333333 0.3333333333333333 0  0.1666666666666667 0.3333333333333333 0  0.2 0.3333333333333333 0  0.2333333333333333 0.3333333333333333 0  0.2666666666666667 0.3333333333333333 0  0.3 0.3333333333333333 0  0.3333333333333333 0.3333333333333333 0  0.3666666666666666 0.3333333333333333 0  0.4 0.3333333333333333 0  0.4333333333333333 0.3333333333333333 0  0.4666666666666667 0.3333333333333333 0  0.5 0.3333333333333333 0  0.5333333333333333 0.33333333333333
[...]
<PointData  Scalars="f_18-1"> 
<DataArray  type="Float64"  Name="f_18-1"  format="ascii">7.7656358173632356e-12  5.4136597411767787e-12  -1.3701722849863156e-11  -5.1730978483157244e-11  -3.9493419939343150e-11  1.3352500075973007e-10  3.9928206512143491e-10  3.0721807528010792e-10  -6.2953437604950768e-10  -1.9845524321891765e-09  -2.0320215382409624e-09  7.8191025387817315e-10  5.4120461364876744e-09  7.8795721871114617e-09  4.5202511774762284e-09  -4.0141911772183079e-09  -1.2438220115552500e-08  -1.4959195053051994e-08  -9.8940222750465331e-09  -5.4486036591466943e-10  7.8739644446729297e-09  1.1967775393147779e-08  1.1570524099486918e-08  8.6198358770906235e-09  5.2539013931539326e-09  2.6892839264162598e-09  1.1700241931176608e-09  4.3671461329560078e-10  1.4534949378036111e-10  2.7507353830178675e-11  2.0489271494585002e-11  5.1743068585412665e-12  -5.7848522738641142e-12  -2.9096851072820638e-11  -2.5973138549162547e-11  9.1570695343809499e-11  3.0705773851930156e-10  2.4967727554786113e-10  -6.4321137154825918e-10  -2.1262590422384342e-09  -2.2116948362413445e-09  1.5960397553104296e-09  8.5829803397027671e-09  1.2557767742021466e-08  5.7481577138879243e-09  -1.2763178362165988e-08  -3.2681027550826464e-08  -3.8552847118119018e-08  -2.1952102749346593e-08  1.1360416906070107e-08  4.5626751672683999e-08  6.6205399401139525e-08  6.7963685976841535e-08  5.5551843199760590e-08  3.7788209477240297e-08  2.1849437226972315e-08  1.0858198639887692e-08  4.6637625570279192e-09  1.7401955121552229e-09  5.7050174879919667e-10  1.2254399983077480e-10  7.5669870632713525e-11  -1.2308210013249066e-11  -2.7598457468145244e-11  -2.2550052100999441e-11  1.1882069709952750e-10  3.9336221791787001e-10  2.7762435493084737e-10  -1.1937542450220778e-09  -3.7679923658471918e-09  -3.6164768836716575e-09  5.2317055246952387e-09  2.2278219182167845e-08  3.1508050850805138e-08  7.4917117414774028e-09  -5.8349441426369962e-08  -1.3300946742255106e-07  -1.5055644465397136e-07  -5.7981448337419934e-08  1.3824953372706858e-07  3.6754115130501986e-07  5.3811088354691982e-07  5.9202502612886553e-07  5.3113711936588801e-07  4.0224000157705770e-07  2.6174153135962145e-07  1.4779528243625275e-07  7.2819602597957349e-08  3.1396146198569205e-08  1.1874634970688172e-08  3.9367623159460010e-09  9.6569174164861201e-10  5.6643415075525907e-10  -4.4247186198338802e-11  -2.2279616823881607e-11  1.1463661741054028e-10  4.1375551988438086e-10  2.9239792875445814e-10  -1.6352958141162367e-09  -5.4085251238266503e-09  -5.1091370096981809e-09  1.1141408383418620e-08  4.5610816612290748e-08  6.4972525730251674e-08  2.9388826244589434e-10  -1.9007691333328273e-07  -4.2325134990296709e-07  -4.6474139130458853e-07  -5.0526553215534303e-08  9.0339001380951573e-07  2.1780997693301775e-06  3.3376861080259326e-06  3.9710363144890607e-06  3.9104838621642526e-06  3.2819424925285539e-06  2.3845614518501018e-06  1.5134976069325240e-06  8.4361159567538001e-07  4.1414645688411996e-07  1.7930774972514390e-07  6.8517734148739482e-08  2.2985430171253206e-08  6.1218802211432113e-09  3.5106328386995969e-09  -3.0262343582970564e-11  8.3837758136822319e-11  3.5850420539245509e-10  2.6547023573236025e-10  -1.7913144496613438e-09  -6.3373011853268731e-09  -5.9846488288881505e-09  1.8203633608478209e-08  7.5181101416465770e-08  1.0912579236813767e-07  -3.0351545502787610e-08  -4.7759468602079792e-07  -1.0729368517556879e-06  -1.1353807953620239e-06  3.6326451891464869e-07  4.1397022319008446e-06  9.8824998920271693e-06  1.6104657876804632e-05  2.0795203039123197e-05  2.2455968863918677e-05  2.0816905187721825e-05  1.6807145160267772e-05  1.1919168308177617e-05  7.4621012133160265e-06  4.1361481055538626e-06  2.0327110517607944e-06  8.8609613913984244e-07  3.4250736927455122e-07  1.1662501747138405e-07  3.3112126829995097e-08  1.8762208644183495e-08  1.1413770270742130e-10  2.5874518090602369e-10  2.1324952788493677e-10  -1.5763879162554727e-09  -6.0979163587741397e-09  -5.9196260838677184e-09  2.3252095664150774e-08  1.0021991885472649e-07  1.5001687340539942e-07  -9.1253434109379829e-08  -9.4357581096287103e-07  -2.1844145083676791e-06  -2.2096385579608123e-06  2.1421024811923135e-06  1.4222145341463147e-05  3.5026991941682480e-05  6.1301566337155220e-05  8.6099536115396980e-05  1.0184039467984604e-04  1.0396744384999074e-04  9.2896408929732225e-05  7.3251968121524293e-05  5.1225793855742873e-05  3.1858312260568191e-05  1.7645816661052457e-05  8.7087174750449251e-06  3.8288114504521050e-06  1.4980898837513976e-06  5.1837114394692886e-07  1.5491472996527645e-07  8.7263596915825585e-08  3.1581046259202603e-10  1.7457124271658295e-10  -1.1157345791159085e-09  -4.8470942002189718e-09  -5.0614976561775581e-09  2.3389411324040922e-08  1.0841487185511648e-07  1.6996927010024609e-07  -1.6430899987680861e-07  -1.4790648033010205e-06  -3.5858314064814978e-06  -3.4393775205953717e-06  6.6499595767306995e-06  3.7699328355320140e-05  9.8093747734159323e-05  1.8572475799270201e-04  2.8430141709144378e-04  3.6800938898535687e-04  4.1263696245699791e-04  4.0651214917055681e-04  3.5488652446670764e-04  2.7592829282808463e-04  1.9159639265316431e-04  1.1896682269509198e-04  6.6080592406395495e-05  3.2826710969487947e-05  1.4574000251577816e-05  5.7744975756147000e-06  2.0309612164071569e-06  6.3305225597897775e-07  3.5586511676398072e-07  2.0525588250560907e-10  -6.0004302372014269e-10  -3.1997328196943024e-09  -3.8285659031609562e-09  1.8545735823332344e-08  9.5579161696291629e-08  1.6067325819372674e-07  -2.0844477974273630e-07  -1.8476168379900008e-06  -4.7602666351415216e-06  -4.3105119815004955e-06  1.4292745667214235e-05  7.8125123516829063e-05  2.1824104192051533e-04  4.4993501737564437e-04  7.5261399010917581e-04  1.0660221096230791e-03  1.3100089079773128e-03  1.4179539591842310e-03  1.3647315186629198e-03  1.1745583761950578e-03  9.0663149969476015e-04  6.2839512965104014e-04  3.9113241016530134e-04  2.1851375866613676e-04  1.0947708493613818e-04  4.9132764543758384e-05  1.9719536784813615e-05  7.0481785765727229e-06  2.2757407762668317e-06  1.2797508511269522e-06  -5.7593571529059839e-10  -1.7625159405792977e-09  -2.5784908002551245e-09  1.1533159073991676e-08  6.8994771109638072e-08  1.2878989257798805e-07  -1.9290883777523146e-07  -1.8436806438793066e-06  -5.1349722522043769e-06  -4.4415285526655028e-06  2.2719728535012273e-05  1.2721116792712364e-04  3.8609640056070608e-04  8.7215669610869826e-04  1.6001340448439279e-03  2.4836225303704320e-03  3.3418304803362890e-03  3.9625149807534857e-03  4.1867419125321218e-03  3.9697111424002261e-03  3.3906012842565328e-03  2.6124637018349519e-03  1.8155805450167312e-03  1.1369128043550334e-03  6.4058952880633856e-04  3.2428874659110854e-04  1.4727535937345787e-04  5.9893206646550597e-05  2.1745947787190693e-05  7.2347674004152360e-06  4.0760082174764205e-06  -1.6348859994845427e-09  -1.6164001463448793e-09  5.5384566289367437e-09  4.0916818140953016e-08  8.8655695857991213e-08  -1.2902055105373637e-07  -1.4714569034286256e-06  -4.5361174808061470e-06  -3.9541027244521886e-06  2.7254997547211891e-05  1.6291253909676116e-04  5.4231856314904451e-04  1.3494101122477737e-03  2.7273768552241559e-03  4.6543195120583927e-03  6.8663308908531772e-03  8.9075035065562212e-03  1.0294113306404479e-02  1.0697416377698920e-02  1.0053790975451886e-02  8.5676157176279525e-03  6.6209090027812539e-03  4.6330132355751038e-03  2.9290707417348833e-03  1.6691310302313148e-03  8.5547811584587435e-04  3.9360323011860963e-04  1.6225366404937973e-04  5.9816856437864235e-05  2.0418700780410457e-05  1.1535018383574127e-05  -1.5575411525425621e-09  1.8132674032222067e-09  1.9901618072274260e-08  5.2414171931206271e-08  -5.8701233638710007e-08  -9.3887898325527161e-07  -3.3086479639992321e-06  -3.2500018853610675e-06  2.4726359750609880e-05  1.6412619925576023e-04  6.0458581035262673e-04  1.6628482043987401e-03  3.7134769411105968e-03  6.9935413467185938e-03  1.1353774936239904e-02  1.6145059418807343e-02  2.0383694623145616e-02  2.3115920447552629e-02  2.3754271142321554e-02  2.2235352633374946e-02  1.8991162526677218e-02  1.4783387398570222e-02  1.0458127541173371e-02  6.6992038147874536e-03  3.8721879331166738e-03  2.0135700018507219e-03  9.3978884166059549e-04  3.9288130508634907e-04  1.4700343244155952e-04  5.1305992047239052e-05  2.9073376040669480e-05  9.3410285447433221e-10  7.7891923864806440e-09  2.6202036598768646e-08  -1.3989905716974616e-08  -4.7710949073040971e-07  -1.9989563364581091e-06  -2.5120073299120250e-06  1.6814176005818195e-05  1.3021467587105191e-04  5.3719906011010681e-04  1.6383552229956425e-03  4.0431672856012782e-03  8.4088878736948668e-03  1.5066316952868647e-02  2.3582585267031202e-02  3.2621904628002518e-02  4.0345706806550433e-02  4.5117344084615561e-02  4.6033489482944043e-02  4.3079014808263524e-02  3.7016254739513012e-02  2.9137002010352794e-02  2.0916602220806588e-02  1.3622742927533266e-02  8.0100703460856629e-03  4.2353294771566609e-03  2.0079465049896448e-03  8.5171875884502849e-04  3.2329094917238251e-04  1.1501294476723065e-04  6.5369981512197368e-05  5.0109924418268925e-09  1.0995738916354293e-08  2.4647757397713825e-09  -1.9119613586359541e-07  -9.9459850477000043e-07  -1.7207915126324550e-06  8.3806214957265556e-06  8.1352953053691226e-05  3.8299888502428677e-04  1.3053200445570625e-03  3.5635173936236454e-03  8.1634093180617644e-03  1.6106221505038692e-02  2.7778965578833203e-02  4.2273348150594144e-02  5.7240630462178366e-02  6.9673099059536822e-02  7.7105611964334048e-02  7.8345019695653481e-02  7.3503240467173075e-02  6.3723096493135511e-02  5.0873155855645301e-02  3.7174029203319588e-02  2.4688659096149163e-02  1.4805421169091781e-02  7.9755174011078792e-03  3.8453877527657564e-03  1.6555823901701974e-03  6.3709524655519289e-04  2.3037030879384727e-04  1.3125903041918044e-04  7.2455401251370293e-09  4.5016708709575056e-09  -5.9151777945504224e-08  -4.0214418305119219e-07  -9.6947190401887140e-07  2.9007701608560767e-06  3.9852850836094813e-05  2.1952283329502699e-04  8.4868482164040171e-04  2.5860899117539802e-03  6.5386892769954729e-03  1.4153160104265332e-02  2.6761252545109537e-02  4.4720173104822916e-02  6.6473552125263902e-02  8.8430937740891752e-02  1.0625060959199661e-01  1.1664639699145724e-01  1.1826385084287547e-01  1.1143203362405761e-01  9.7634432082185002e-02  7.9196397821770195e-02  5.9016525897365543e-02  4.0043078125034194e-02  2.4531793295357901e-02  1.3480326192151308e-02  6.6142637440863390e-03  2.8901876307023491e-03  1.1264157374285878e-03  4.1276024281187350e-04  2.3550396834469650e-04  4.1388698975048103e-09  -1.3051569079401113e-08  -1.2977092704276876e-07  -4.2979788253835640e-07  5.8040838514664037e-07  1.5168034417204307e-05  1.0054892253109500e-04  4.4868254521219229e-04  1.5510672988634079e-03  4.3869015499432111e-03  1.0485895794708443e-02  2.1702126769200622e-02  3.9585368651496498e-02  6.4305857455063023e-02  9.3528748693130354e-02  1.2239466106215330e-01  1.4534293037484744e-01  1.5848221785711702e-01  1.6049294141328466e-01  1.5197680117156792e-01  1.3463121161272212e-01  1.1098410198659153e-01  8.4360199301586225e-02  5.8491647617200215e-02  3.6615929343595179e-02  2.0525442961279672e-02  1.0245525037417897e-02  4.5398443650717249e-03  1.7890100347967856e-03  6.6207813765190374e-04  3.7759626302202100e-04  -4.0995085859818934e-09  -3.2595319090600385e-08  -1.4715662811392463e-07  -1.2692780828747916e-08  4.4183716722222103e-06  3.6453041069829793e-05  1.9037462135447538e-04  7.5731546901846734e-04  2.4391116113128349e-03  6.5596616681297759e-03  1.5063915982297126e-02  3.0125536761277036e-02  5.3316583189484269e-02  8.4382641446820311e-02  1.2011185753922242e-01  1.5457394195050278e-01  1.8141716463744331e-01  1.9654646891697178e-01  1.9886478086732323e-01  1.8921692937078602e-01  1.6933667135611113e-01  1.4167716039851128e-01  1.0966855543486742e-01  7.7573065595493304e-02  4.9539954229436162e-02  2.8283800181516591e-02  1.4338586347146102e-02  6.4300794610095994e-03  2.5553971271665746e-03  9.5113528987356003e-04  5.4075990084666162e-04  -1.2577020763572131e-08  -3.8926928074298857e-08  -5.5545362225174923e-08  9.5765532167781438e-07  1.0361685131590529e-05  6.4054098518190195e-05  2.9529296472728331e-04  1.0943693714702775e-03  3.3677983808685966e-03  8.7692342874626256e-03  1.9622046048437130e-02  3.8318352031687361e-02  6.6242465848614845e-02  1.0246986195396245e-01  1.4287754620821783e-01  1.8083392195517201e-01  2.0980067324709545e-01  2.2591724074048236e-01  2.2839860661844139e-01  2.1820709364926497e-01  1.9693994141829604e-01  1.6678808669403855e-01  1.3104686488801584e-01  9.4228330116219824e-02  6.1171964247586599e-02  3.5450016491589666e-02  1.8192226826544648e-02  8.2290415159393254e-03  3.2856363135650227e-03  1.2235363883454314e-03  6.9078553136400409e-04  -1.5330570346942590e-08  -2.2561354480659053e-08  1.4454025432154077e-07  2.2834237904423025e-06  1.6962752701266121e-05  9.0965692699176469e-05  3.8867604793742060e-04  1.3760654613614554e-03  4.1146651867438972e-03  1.0513576128530256e-02  2.3192813741148722e-02  4.4675528813135634e-02  7.6044588799995719e-02  1.1562080403688536e-01  1.5849817223366791e-01  1.9777984895002745e-01  2.2725732232539261e-01  2.4355898763144143e-01  2.4614718859976589e-01  2.3592863682104054e-01  2.1425666599579685e-01  1.8301877180937537e-01  1.4529832729953232e-01  1.0566423766567459e-01  6.9366838443195009e-02  4.0596276607315296e-02  2.0986641571899792e-02  9.5298673380946278e-03  3.8033511739742013e-03  1.4077286365287774e-03  7.8501941820128130e-04  -1.0285618621885210e-08  1.1539779327781116e-08  3.8312416841017696e-07  3.5116622143776549e-06  2.2048854710299348e-05  1.0864184838207628e-04  4.4174961910045885e-04  1.5175508593681089e-03  4.4583261202410423e-03  1.1283243717006839e-02  2.4757472680655944e-02  4.7459877266557454e-02  8.0235204470360866e-02  1.2087025876437783e-01  1.6403426541923966e-01  2.0294898075549245e-01  2.3194874071607555e-01  2.4809999550006007e-01  2.5091775395397398e-01  2.4110547687977638e-01  2.1976378512508171e-01  1.8856782885043818e-01  1.5045937489843592e-01  1.0998638629940714e-01  7.2545805625776991e-02  4.2601868226609850e-02  2.2048104202352873e-02  9.9893752169929722e-03  3.9591911110251100e-03  1.4446029572400914e-03  7.8986130656194791e-04  -6.7431398708827111e-10  4.7130847695053513e-08  5.6236225452350023e-07  4.1884279776295095e-06  2.3887535266621903e-05  1.1143109506618371e-04  4.3823605404795242e-04  1.4758895351342370e-03  4.2916255922139926e-03  1.0825066636375948e-02  2.3774629048386134e-02  4.5686990083009110e-02  7.7364830996209541e-02  1.1654107393945269e-01  1.5799274923995332e-01  1.9534331984532022e-01  2.2339671084719043e-01  2.3938855606354215e-01  2.4265186157516741e-01  2.3360301153636501e-01  2.1315815056530457e-01  1.8293714236358841e-01  1.4587556426955128e-01  1.0648331486269709e-01  7.0066466916836601e-02  4.0987853076363656e-02  2.1083825445728364e-02  9.4618524897140590e-03  3.6948124496774711e-03  1.3154515579179467e-03  6.9803707180509267e-04  8.0467349249591715e-09  6.8551606604872082e-08  6.1849549962312600e-07  4.1202455374532756e-06  2.2117457564524093e-05  9.9476941677204456e-05  3.8259199687551968e-04  1.2724512211379887e-03  3.6816742822137960e-03  9.2963944083029534e-03  2.0530983544016980e-02  3.9779042548310231e-02  6.7974117622727162e-02  1.0329398427349122e-01  1.4116966758892122e-01  1.7586391058006828e-01  2.0251788983143842e-01  2.1826963471214861e-01  2.2209279388079958e-01  2.1408813804661075e-01  1.9507284844725956e-01  1.6674868778750365e-01  1.3214422082101596e-01  9.5687518398592936e-02  6.2356793301769929e-02  3.6061984548735979e-02  1.8292945380810010e-02  8.0642369940215047e-03  3.0732070912060545e-03  1.0537536185301522e-03  5.3467626999348166e-04  1.2277261961911875e-08  7.0248669578703841e-08  5.5307866131509196e-07  3.4435058594291182e-06  1.7770289392719475e-05  7.8025745255155073e-05  2.9587290008180507e-04  9.7733602807013398e-04  2.8256150889747586e-03  7.1672953005833080e-03  1.5973801747502254e-02  3.1343514442323139e-02  5.4363399119980463e-02  8.3929007281795476e-02  1.1651064107695058e-01  1.4725670279736236e-01  1.7167037117179398e-01  1.8671722285518888e-01  1.9096412239123831e-01  1.8420797188712182e-01  1.6721611053136715e-01  1.4181749990376219e-01  1.1111600900918403e-01  7.9322718585523463e-02  5.0838423643445839e-02  2.8845288973658102e-02  1.4310351834531663e-02  6.1390537275708250e-03  2.2566431731923611e-03  7.3217612071494723e-04  3.4696975432113770e-04  1.1846342254280052e-08  5.7194346320473970e-08  4.1671492328785408e-07  2.4865334188532448e-06  1.2512506681558070e-05  5.4130130776555511e-05  2.0368023805851867e-04  6.7135740900530903e-04  1.9463496103192656e-03  4.9736535377356292e-03  1.1216474455841154e-02  2.2357951710339115e-02  3.9513847528648900e-02  6.2268992901465835e-02  8.8250058145607713e-02  1.1369733122113782e-01  1.3468585555290832e-01  1.4817951615053004e-01  1.5245653049292168e-01  1.4706853389168639e-01  1.3272783264428614e-01  1.1131244963301673e-01  8.5840361616975766e-02  6.0078838779162105e-02  3.7624272343837493e-02  2.0788259913524402e-02  9.9977105282725420e-03  4.1278647650287142e-03  1.4412974594257219e-03  4.3099452428621457e-04  1.8269601750100145e-04  8.7937129420290770e-09  3.8718175695912121e-08  2.6956398690276760e-07  1.5672377205569195e-06  7.7708015682030244e-06  3.3361276231175223e-05  1.2522017080442120e-04  4.1346846312812375e-04  1.2055257524803541e-03  3.1102946159563020e-03  7.1101960891010139e-03  1.4421849242025884e-02  2.6020086878084527e-02  4.1947056376839986e-02  6.0838507005368192e-02  8.0083331301420466e-02  9.6577073618123427e-02  1.0760004839023819e-01  1.1139548508500952e-01  1.0738350817320604e-01  9.6180840940607068e-02  7.9541428838497033e-02  6.0144270786498581e-02  4.1070275371278234e-02  2.4980176351077077e-02  1.3337993449169359e-02  6.1561613884433940e-03  2.4117432908886249e-03  7.8199359833248602e-04  2.0578658642375833e-04  7.0441838185321022e-05  5.3390020186321900e-09  2.2278298876835896e-08  1.5132327804877164e-07  8.6757318232352040e-07  4.2732724946662225e-06  1.8314038018498632e-05  6.8872751470941260e-05  2.2855926558453232e-04  6.7176699002326993e-04  1.7526179416641986e-03  4.0648902058138233e-03  8.3929739135740079e-03  1.5460004986440970e-02  2.5495607779974425e-02  3.7842514047818555e-02  5.0897124894473650e-02  6.2487050335581822e-02  7.0490268542180309e-02  7.3394773294741089e-02  7.0632342145899196e-02  6.2685148710034791e-02  5.0999400111925448e-02  3.7686744331044277e-02  2.4996097676155800e-02  1.4674909467861069e-02  7.5061179431920241e-03  3.2818352367862372e-03  1.1945025819952841e-03  3.4574870195304983e-04  7.2048923678821037e-05  1.2747380153364939e-05  2.7229865992773594e-09  1.1022529615660568e-08  7.4164321755051934e-08  4.2327056269794062e-07  2.0851220456499309e-06  8.9657827841776177e-06  3.3909869389247534e-05  1.1341334034318127e-04  3.3665217563162697e-04  8.8906242290653621e-04  2.0924389992578213e-03  4.3953238904985295e-03  8.2557778229517455e-03  1.3904605268911680e-02  2.1082069533762984e-02  2.8919598100733340e-02  3.6085968778239226e-02  4.1156273407917054e-02  4.3037171471196942e-02  4.1285922967747329e-02  3.6240085741864707e-02  2.8936322797877358e-02  2.0826636520109992e-02  1.3350414209763475e-02  7.5086591417043106e-03  3.6357742762612201e-03  1.4762137503133738e-03  4.8088422743369682e-04  1.1368310226664368e-04  1.2140356862481742e-05  -6.2401738660424912e-06  1.1810793227216044e-09  4.7167909115562149e-09  3.1833369802787711e-08  1.8229631563584657e-07  9.0343873548133252e-07  3.9148526199254713e-06  1.4940967886496322e-05  5.0483488527373222e-05  1.5157624261395806e-04  4.0546314407146342e-04  9.6811675673595990e-04  2.0665386329632206e-03  3.9503208457573455e-03  6.7771001274764464e-03  1.0464928512885909e-02  1.4596134933144590e-02  1.8456701024693371e-02  2.1225076741988404e-02  2.2237085092560505e-02 