<?xml version="1.0"?>
<VTKFile type="UnstructuredGrid"  version="0.1"  >
<UnstructuredGrid>
<Piece  NumberOfPoints="441" NumberOfCells="800">
<Points>
<DataArray  type="Float64"  NumberOfComponents="3"  format="ascii">-2 -2 0  -1.8 -2 0  -1.6 -2 0  -1.4 -2 0  -1.2 -2 0  -1 -2 0  -0.8 -2 0  -0.6000000000000001 -2 0  -0.3999999999999999 -2 0  -0.2 -2 0  0 -2 0  0.2000000000000002 -2 0  0.3999999999999999 -2 0  0.6000000000000001 -2 0  0.7999999999999998 -2 0  1 -2 0  1.2 -2 0  1.4 -2 0  1.6 -2 0  1.8 -2 0  2 -2 0  -2 -1.8 0  -1.8 -1.8 0  -1.6 -1.8 0  -1.4 -1.8 0  -1.2 -1.8 0  -1 -1.8 0  -0.8 -1.8 0  -0.6000000000000001 -1.8 0  -0.3999999999999999 -1.8 0  -0.2 -1.8 0  0 -1.8 0  0.2000000000000002 -1.8 0  0.3999999999999999 -1.8 0  0.6000000000000001 -1.8 0  0.7999999999999998 -1.8 0  1 -1.8 0  1.2 -1.8 0  1.4 -1.8 0  1.6 -1.8 0  1.8 -1.8 0  2 -1.8 0  -2 -1.6 0  -1.8 -1.6 0  -1.6 -1.6 0  -1.4 -1.6 0  -1.2 -1.6 0  -1 -1.6 0  -0.8 -1.6 0  -0.6000000000000001 -1.6 0  -0.3999999999999999 -1.6 0  -0.2 -1.6 0  0 -1.6 0  0.2000000000000002 -1.6 0  0.3999999999999999 -1.6 0  0.6000000000000001 -1.6 0  0.7999999999999998 -1.6 0  1 -1.6 0  1.2 -1.6 0  1.4 -1.6 0  1.6 -1.6 0  1.8 -1.6 0  2 -1.6 0  -2 -1.4 0  -1.8 -1.4 0  -1.6 -1.4 0  -1.4 -1.4 0  -1.2 -1.4 0  -1 -1.4 0  -0.8 -1.4 0  -0.6000000000000001 -1.4 0  -0.3999999999999999 -1.4 0  -0.2 -1.4 0  0 -1.4 0  0.2000000000000002 -1.4 0  0.3999999999999999 -1.4 0  0.6000000000000001 -1.4 0  0.7999999999999998 -1.4 0  1 -1.4 0  1.2 -1.4 0  1.4 -1.4 0  1.6 -1.4 0  1.8 -1.4 0  2 -1.4 0  -2 -1.2 0  -1.8 -1.2 0  -1.6 -1.2 0  -1.4 -1.2 0  -1.2 -1.2 0  -1 -1.2 0  -0.8 -1.2 0  -0.6000000000000001 -1.2 0  -0.3999999999999999 -1.2 0  -0.2 -1.2 0  0 -1.2 0  0.2000000000000002 -1.2 0  0.3999999999999999 -1.2 0  0.6000000000000001 -1.2 0  0.7999999999999998 -1.2 0  1 -1.2 0  1.2 -1.2 0  1.4 -1.2 0  1.6 -1.2 0  1.8 -1.2 0  2 -1.2 0  -2 -1 0  -1.8 -1 0  -1.6 -1 0  -1.4 -1 0  -1.2 -1 0  -1 -1 0  -0.8 -1 0  -0.6000000000000001 -1 0  -0.3999999999999999 -1 0  -0.2 -1 0  0 -1 0  0.2000000000000002 -1 0  0.3999999999999999 -1 0  0.6000000000000001 -1 0  0.7999999999999998 -1 0  1 -1 0  1.2 -1 0  1.4 -1 0  1.6 -1 0  1.8 -1 0  2 -1 0  -2 -0.8 0  -1.8 -0.8 0  -1.6 -0.8 0  -1.4 -0.8 0  -1.2 -0.8 0  -1 -0.8 0  -0.8 -0.8 0  -0.6000000000000001 -0.8 0  -0.3999999999999999 -0.8 0  -0.2 -0.8 0  0 -0.8 0  0.2000000000000002 -0.8 0  0.3999999999999999 -0.8 0  0.6000000000000001 -0.8 0  0.7999999999999998 -0.8 0  1 -0.8 0  1.2 -0.8 0  1.4 -0.8 0  1.6 -0.8 0  1.8 -0.8 0  2 -0.8 0  -2 -0.6000000000000001 0  -1.8 -0.6000000000000001 0  -1.6 -0.6000000000000001 0  -1.4 -0.6000000000000001 0  -1.2 -0.6000000000000001 0  -1 -0.6000000000000001 0  -0.8 -0.6000000000000001 0  -0.6000000000000001 -0.6000000000000001 0  -0.3999999999999999 -0.6000000000000001 0  -0.2 -0.6000000000000001 0  0 -0.6000000000000001 0  0.2000000000000002 -0.6000000000000001 0  0.3999999999999999 -0.6000000000000001 0  0.6000000000000001 -0.6000000000000001 0  0.7999999999999998 -0.6000000000000001 0  1 -0.6000000000000001 0  1.2 -0.6000000000000001 0  1.4 -0.6000000000000001 0  1.6 -0.6000000000000001 0  1.8 -0.6000000000000001 0  2 -0.6000000000000001 0  -2 -0.3999999999999999 0  -1.8 -0.3999999999999999 0  -1.6 -0.3999999999999999 0  -1.4 -0.3999999999999999 0  -1.2 -0.3999999999999999 0  -1 -0.3999999999999999 0  -0.8 -0.3999999999999999 0  -0.6000000000000001 -0.3999999999999999 0  -0.3999999999999999 -0.3999999999999999 0  -0.2 -0.3999999999999999 0  0 -0.3999999999999999 0  0.2000000000000002 -0.3999999999999999 0  0.3999999999999999 -0.3999999999999999 0  0.6000000000000001 -0.3999999999999999 0  0.7999999999999998 -0.3999999999999999 0  1 -0.3999999999999999 0  1.2 -0.3999999999999999 0  1.4 -0.3999999999999999 0  1.6 -0.3999999999999999 0  1.8 -0.3999999999999999 0  2 -0.3999999999999999 0  -2 -0.2 0  -1.8 -0.2 0  -1.6 -0.2 0  -1.4 -0.2 0  -1.2 -0.2 0  -1 -0.2 0  -0.8 -0.2 0  -0.6000000000000001 -0.2 0  -0.3999999999999999 -0.2 0  -0.2 -0.2 0  0 -0.2 0  0.2000000000000002 -0.2 0  0.3999999999999999 -0.2 0  0.6000000000000001 -0.2 0  0.7999999999999998 -0.2 0  1 -0.2 0  1.2 -0.2 0  1.4 -0.2 0  1.6 -0.2 0  1.8 -0.2 0  2 -0.2 0  -2 0 0  -1.8 0 0  -1.6 0 0  -1.4 0 0  -1.2 0 0  -1 0 0  -0.8 0 0  -0.6000000000000001 0 0  -0.3999999999999999 0 0  -0.2 0 0  0 0 0  0.2000000000000002 0 0  0.3999999999999999 0 0  0.6000000000000001 0 0  0.7999999999999998 0 0  1 0 0  1.2 0 0  1.4 0 0  1.6 0 0  1.8 0 0  2 0 0  -2 0.2000000000000002 0  -1.8 0.2000000000000002 0  -1.6 0.2000000000000002 0  -1.4 0.2000000000000002 0  -1.2 0.2000000000000002 0  -1 0.2000000000000002 0  -0.8 0.2000000000000002 0  -0.6000000000000001 0.2000000000000002 0  -0.3999999999999999 0.2000000000000002 0  -0.2 0.2000000000000002 0  0 0.2000000000000002 0  0.2000000000000002 0.2000000000000002 0  0.3999999999999999 0.2000000000000002 0  0.6000000000000001 0.2000000000000002 0  0.7999999999999998 0.2000000000000002 0  1 0.2000000000000002 0  1.2 0.2000000000000002 0  1.4 0.2000000000000002 0  1.6 0.2000000000000002 0  1.8 0.2000000000000002 0  2 0.2000000000000002 0  -2 0.3999999999999999 0  -1.8 0.3999999999999999 0  -1.6 0.3999999999999999 0  -1.4 0.3999999999999999 0  -1.2 0.3999999999999999 0  -1 0.3999999999999999 0  -0.8 0.3999999999999999 0  -0.6000000000000001 0.3999999999999999 0  -0.3999999999999999 0.3999999999999999 0  -0.2 0.3999999999999999 0  0 0.3999999999999999 0  0.2000000000000002 0.3999999999999999 0  0.3999999999999999 0.3999999999999999 0  0.6000000000000001 0.3999999999999999 0  0.7999999999999998 0.3999999999999999 0  1 0.3999999999999999 0  1.2 0.3999999999999999 0  1.4 0.3999999999999999 0  1.6 0.3999999999999999 0  1.8 0.3999999999999999 0  2 0.3999999999999999 0  -2 0.6000000000000001 0  -1.8 0.6000000000000001 0  -1.6 0.6000000000000001 0  -1.4 0.6000000000000001 0  -1.2 0.6000000000000001 0  -1 0.6000000000000001 0  -0.8 0.6000000000000001 0  -0.6000000000000001 0.6000000000000001 0  -0.3999999999999999 0.6000000000000001 0  -0.2 0.6000000000000001 0  0 0.6000000000000001 0  0.2000000000000002 0.6000000000000001 0  0.3999999999999999 0.6000000000000001 0  0.6000000000000001 0.6000000000000001 0  0.7999999999999998 0.6000000000000001 0  1 0.6000000000000001 0  1.2 0.6000000000000001 0  1.4 0.6000000000000001 0  1.6 0.6000000000000001 0  1.8 0.6000000000000001 0  2 0.6000000000000001 0  -2 0.7999999999999998 0  -1.8 0.7999999999999998 0  -1.6 0.7999999999999998 0  -1.4 0.7999999999999998 0  -1.2 0.7999999999999998 0  -1 0.7999999999999998 0  -0.8 0.7999999999999998 0  -0.6000000000000001 0.7999999999999998 0  -0.3999999999999999 0.7999999999999998 0  -0.2 0.7999999999999998 0  0 0.7999999999999998 0  0.2000000000000002 0.7999999999999998 0  0.3999999999999999 0.7999999999999998 0  0.6000000000000001 0.7999999999999998 0  0.7999999999999998 0.7999999999999998 0  1 0.7999999999999998 0  1.2 0.7999999999999998 0  1.4 0.7999999999999998 0  1.6 0.7999999999999998 0  1.8 0.7999999999999998 0  2 0.7999999999999998 0  -2 1 0  -1.8 1 0  -1.6 1 0  -1.4 1 0  -1.2 1 0  -1 1 0  -0.8 1 0  -0.6000000000000001 1 0  -0.3999999999999999 1 0  -0.2 1 0  0 1 0  0.2000000000000002 1 0  0.3999999999999999 1 0  0.6000000000000001 1 0  0.7999999999999998 1 0  1 1 0  1.2 1 0  1.4 1 0  1.6 1 0  1.8 1 0  2 1 0  -2 1.2 0  -1.8 1.2 0  -1.6 1.2 0  -1.4 1.2 0  -1.2 1.2 0  -1 1.2 0  -0.8 1.2 0  -0.6000000000000001 1.2 0  -0.3999999999999999 1.2 0  -0.2 1.2 0  0 1.2 0  0.2000000000000002 1.2 0  0.3999999999999999 1.2 0  0.6000000000000001 1.2 0  0.7999999999999998 1.2 0  1 1.2 0  1.2 1.2 0  1.4 1.2 0  1.6 1.2 0  1.8 1.2 0  2 1.2 0  -2 1.4 0  -1.8 1.4 0  -1.6 1.4 0  -1.4 1.4 0  -1.2 1.4 0  -1 1.4 0  -0.8 1.4 0  -0.6000000000000001 1.4 0  -0.3999999999999999 1.4 0  -0.2 1.4 0  0 1.4 0  0.2000000000000002 1.4 0  0.3999999999999999 1.4 0  0.6000000000000001 1.4 0  0.7999999999999998 1.4 0  1 1.4 0  1.2 1.4 0  1.4 1.4 0  1.6 1.4 0  1.8 1.4 0  2 1.4 0  -2 1.6 0  -1.8 1.6 0  -1.6 1.6 0  -1.4 1.6 0  -1.2 1.6 0  -1 1.6 0  -0.8 1.6 0  -0.6000000000000001 1.6 0  -0.3999999999999999 1.6 0  -0.2 1.6 0  0 1.6 0  0.2000000000000002 1.6 0  0.3999999999999999 1.6 0  0.6000000000000001 1.6 0  0.7999999999999998 1.6 0  1 1.6 0  1.2 1.6 0  1.4 1.6 0  1.6 1.6 0  1.8 1.6 0  2 1.6 0  -2 1.8 0  -1.8 1.8 0  -1.6 1.8 0  -1.4 1.8 0  -1.2 1.8 0  -1 1.8 0  -0.8 1.8 0  -0.6000000000000001 1.8 0  -0.3999999999999999 1.8 0  -0.2 1.8 0  0 1.8 0  0.2000000000000002 1.8 0  0.3999999999999999 1.8 0  0.6000000000000001 1.8 0  0.7999999999999998 1.8 0  1 1.8 0  1.2 1.8 0  1.4 1.8 0  1.6 1.8 0  1.8 1.8 0  2 1.8 0  -2 2 0  -1.8 2 0  -1.6 2 0  -1.4 2 0  -1.2 2 0  -1 2 0  -0.8 2 0  -0.6000000000000001 2 0  -0.3999999999999999 2 0  -0.2 2 0  0 2 0  0.2000000000000002 2 0  0.3999999999999999 2 0  0.6000000000000001 2 0  0.7999999999999998 2 0  1 2 0  1.2 2 0  1.4 2 0  1.6 2 0  1.8 2 0  2 2 0  </DataArray>
</Points>
<Cells>
[...]
<PointData  Scalars="f_18-1"> 
<DataArray  type="Float64"  Name="f_18-1"  format="ascii">4.5786244311250390e-09  1.2111104647943461e-08  7.2730369662042070e-09  -3.8491080986878659e-08  -8.6900975164173640e-08  -2.8662216495418624e-08  1.5894433594635298e-07  2.8753670366607632e-07  1.5545192078253222e-07  -1.4683949060667402e-07  -3.2487511929463253e-07  -2.5817695563754277e-07  -9.4746679578083530e-08  2.2650958491978539e-09  1.8237439645767967e-08  9.7084963011933067e-09  4.5756394708521520e-09  1.2783295004691428e-09  -5.9298496154514911e-10  -5.8886967714992084e-10  -2.9580634336580987e-10  8.6697447912934201e-09  4.4275944091794579e-09  -1.6227333088116332e-08  -4.8642218067784000e-08  -1.8540674890220906e-08  1.3312776608141667e-07  2.6986836887687374e-07  1.1688116518032086e-07  -3.3351340658514894e-07  -6.5475466466120201e-07  -4.8363589503432145e-07  -7.5232434444309234e-09  3.1172260137808793e-07  3.0942956953763167e-07  1.6735046458616526e-07  6.6135251896660026e-08  2.5805864999511986e-08  7.6840083507206874e-09  1.2609279456732909e-09  6.2291141872781751e-10  2.3830938079083859e-10  6.0522331684253126e-09  -1.1693724759290783e-08  -4.3922599221308841e-08  -1.2138409814869436e-08  1.8229327099115352e-07  3.8400543606403529e-07  8.6365800082431853e-08  -9.0702787525067968e-07  -1.7101159814365282e-06  -1.0614700949283306e-06  8.8899031229465956e-07  2.4261413893740350e-06  2.3200855926788337e-06  1.1348424175469514e-06  1.4825966802247747e-07  -1.6043976851937655e-07  -1.1687244288662039e-07  -4.7219033206889261e-08  1.8112357197664082e-10  1.2594805511684178e-08  6.1617104836593071e-09  -1.0500520423965456e-08  -2.6715450815140379e-08  -1.6354336718911882e-08  1.4829266641166608e-07  3.9053012322437168e-07  8.0717301547908649e-08  -1.3879160888750799e-06  -2.8997735621511812e-06  -1.5225748678099276e-06  3.7695745739355905e-06  8.9441647683363542e-06  8.5855172155183254e-06  2.6429378113398607e-06  -3.4830911881291996e-06  -5.4678145359214569e-06  -3.9561307488909722e-06  -1.8687497383443545e-06  -6.5546541984460571e-07  -1.2535640740620071e-07  -3.4298982097984946e-08  -2.4953275202655382e-08  -2.4616505545633537e-08  -1.5215799875667026e-08  7.9525742976313717e-08  2.8950528595935476e-07  1.0925211737860556e-07  -1.3903207127985312e-06  -3.4853826392158565e-06  -1.7310871082026948e-06  7.9897669168829310e-06  2.0098528848443105e-05  1.9548011255217847e-05  -8.8828245974095195e-07  -2.7847319002000386e-05  -4.0257658531296420e-05  -3.1978308959640679e-05  -1.5177777655785048e-05  -3.4486143836824685e-06  4.4404006800799158e-07  4.9894263680629381e-07  -5.3361501992745896e-07  -4.3053386339368695e-07  -1.7117918285192895e-08  2.3146729287169767e-08  1.5190324133201747e-07  1.2671643305268795e-07  -9.0626278669610471e-07  -3.0103835466622394e-06  -1.8788872600164425e-06  1.0124418065872812e-05  3.0012918275917687e-05  3.1057361408434834e-05  -1.6322718284491890e-05  -9.7572287806245125e-05  -1.5014408986799264e-04  -1.2598882077742958e-04  -4.3927422218017264e-05  3.1807396646430872e-05  5.8569635942890343e-05  4.4549741469433903e-05  1.9624430604377771e-05  1.6635239374266911e-06  -1.6377979382759486e-07  5.8822711585263186e-09  5.0420221088167691e-08  9.1140809724932477e-08  -3.6131704036332390e-07  -1.8282634741101304e-06  -1.8209500170974970e-06  7.9483526669909363e-06  3.0801519532423306e-05  3.7596659630841685e-05  -3.3579011259677928e-05  -1.9890178560452815e-04  -3.4335570961635569e-04  -2.9346849169677343e-04  -6.4261805537702219e-06  3.6162818085478575e-04  5.8304020576423969e-04  5.5959983007613341e-04  3.7511028427824754e-04  1.7499169638314702e-04  4.6375547105539382e-05  2.2298899344304549e-05  2.0594348147952175e-08  3.7260393296419015e-08  -7.0801239146014219e-08  -7.3839569385535371e-07  -1.2861555330174243e-06  3.7025836134608140e-06  2.1614747415127344e-05  3.5075352597460932e-05  -3.1253578775030303e-05  -2.5601939741311263e-04  -5.3088859645907438e-04  -4.7260119037649843e-04  2.4249637429730211e-04  1.4640910118071263e-03  2.6210513865816266e-03  3.1006856884264107e-03  2.7229188431899909e-03  1.8243310097967335e-03  9.1572475476750135e-04  3.3012742345699001e-04  1.8759247249168823e-04  1.7130692118423743e-08  1.6994123274406445e-09  -1.7849972306598301e-07  -5.7719422657042881e-07  8.3035816814222944e-07  9.9577248835916484e-06  2.3646483243274163e-05  -1.1914577291608710e-05  -2.1176124788230464e-04  -5.7291626568653877e-04  -6.1653349133506958e-04  5.6695965342278530e-04  3.3073691405365929e-03  6.7442113978319635e-03  9.5184431191016970e-03  1.0356517903583820e-02  8.9535284332395906e-03  6.1630456059482332e-03  3.3189650651856673e-03  1.4183743890380019e-03  8.7601103320629936e-04  6.6483724405208673e-09  -1.9464795381151985e-08  -1.4808305971250121e-07  -2.6473811240519640e-08  2.7575317845899423e-06  1.0508579068597892e-05  1.9943728586170122e-06  -1.1014121689131753e-04  -4.1914711084105625e-04  -6.3653278225406912e-04  4.9323326720350253e-04  4.7459197013213217e-03  1.1703470154506965e-02  1.8663752832609876e-02  2.3735353680394894e-02  2.4950282845221636e-02  2.1720236837526427e-02  1.5504112211614166e-02  8.9178654835540185e-03  4.2861388864012927e-03  2.8097156609692363e-03  6.4680181129579361e-10  -1.7462425657750909e-08  -5.3704055962466806e-08  3.7016687329831756e-07  2.7778351086775939e-06  3.6102559613801859e-06  -3.3153011669382080e-05  -1.9457665611995539e-04  -4.3053343580874698e-04  1.4272341081005341e-04  4.2955953080165690e-03  1.5395655174138564e-02  2.9337731877917772e-02  3.8728530366231480e-02  4.5044077668488891e-02  4.6269269017249877e-02  4.0827360484379217e-02  3.0269332010708243e-02  1.8484603160993918e-02  9.7090769320895397e-03  6.6731032853603817e-03  -4.9700144973557795e-10  -8.4377717773393235e-09  3.1699965014407242e-09  3.6698141340817333e-07  1.3156631228486925e-06  -4.4616572177717039e-06  -5.2201392655168739e-05  -1.7382335713683869e-04  -3.3115662297738974e-05  2.2249321529124529e-03  1.2198517436639539e-02  3.8141834142578553e-02  6.4926085893061689e-02  6.8673564581163193e-02  6.9661660908258094e-02  6.9321266701667314e-02  6.1900343609064025e-02  4.7473049315110399e-02  3.0489336617644160e-02  1.7117625303593845e-02  1.2203334955397971e-02  -2.7870190815203882e-10  -3.2040023445254085e-09  1.1386715265382129e-08  1.8966470556858147e-07  9.7542265886513136e-08  -6.8988010969675823e-06  -4.0037793609878825e-05  -4.8021443100865264e-05  6.0097559405711536e-04  4.6544030677768203e-03  2.0336237724927583e-02  6.3054763167792321e-02  1.1235340551923062e-01  1.0721075008711149e-01  9.2055213075055653e-02  8.7176844815922527e-02  7.8406578867952145e-02  6.1709251910725280e-02  4.1114233239448336e-02  2.4117666755687717e-02  1.7604861289864583e-02  -7.7932010280143552e-11  -1.2773645114751756e-09  5.4832495640209599e-09  6.9930549425088366e-08  -2.2050780760236612e-07  -4.6032888950724125e-06  -1.6291893330199440e-05  6.0964803012829470e-05  9.2015787815243467e-04  5.2446677094251963e-03  2.0370626150715596e-02  6.0695438596245377e-02  1.1682005680247518e-01  1.1923957244287146e-01  9.9450533984563383e-02  9.3245386162664853e-02  8.4968114092059316e-02  6.8042076443669247e-02  4.6224962351836880e-02  2.7598777920716397e-02  2.0277891796523860e-02  9.1578795202005820e-12  -5.2312767332441065e-10  1.6030030608390582e-09  2.5574239600400119e-08  -1.2810958736193155e-07  -1.9817707255764223e-06  -2.5402695266369779e-06  8.1899609278248618e-05  7.6994455304606212e-04  3.9224806826618375e-03  1.3933418054056144e-02  3.7696757176253239e-02  7.4597974586218460e-02  9.0268739959078637e-02  8.6318503276218567e-02  8.5606394320053986e-02  7.9641043056987743e-02  6.4235068757939606e-02  4.3607854824013276e-02  2.5677322037202251e-02  1.8535484234887014e-02  3.1609857488104916e-11  -1.9273098317787940e-10  1.7756353522212579e-10  1.0707168224241302e-08  -3.1117458583958821e-08  -6.6663901260244314e-07  6.5352868682081955e-07  5.2869573881163434e-05  4.5551148387179292e-04  2.2786064713154201e-03  7.9269304015622283e-03  2.0421520507815857e-02  3.9491073251146064e-02  5.5051268244573896e-02  6.3595091791163044e-02  6.7909868040470014e-02  6.4149847565279194e-02  5.1433926875617139e-02  3.4094201933016509e-02  1.8998075209662669e-02  1.2933781390646371e-02  2.1875529452010077e-11  -6.6872063027855920e-11  -2.1881269052379385e-10  4.0710914675044395e-09  1.0638198815355376e-09  -2.2612286890883000e-07  7.7358428605578292e-08  2.1099604464653616e-05  1.9934023544363328e-04  1.0564460353155896e-03  3.8319415452707137e-03  1.0187518468592420e-02  2.0461847139649197e-02  3.1678465833608525e-02  4.0854490720297593e-02  4.5595686027340009e-02  4.3182568865872760e-02  3.3905105200596634e-02  2.1322288268535668e-02  1.0516291062862167e-02  6.1184872552536660e-03  7.3841323816059578e-12  -1.7858939366199606e-11  -1.5644276206162393e-10  1.2609408074785759e-09  5.1434004396382422e-09  -7.9192180996608381e-08  -3.6439171150453360e-07  4.5244754692676848e-06  6.1768478663730867e-05  3.7822280786631464e-04  1.5057437853703611e-03  4.3144775391553486e-03  9.3233086776536907e-03  1.5723242384584862e-02  2.1640124363293860e-02  2.4728019044259569e-02  2.3226068937617542e-02  1.7501212974261333e-02  9.9581576226317019e-03  3.6825300633102531e-03  1.0652532421311428e-03  3.5937528661186468e-13  1.3993246153591126e-12  -3.5648821860784307e-11  1.7841860016296630e-10  2.5270077439103191e-09  -1.6367844430035667e-08  -2.2178654407045007e-07  -4.0932363151279084e-08  1.1647113917379831e-05  9.6991404287309556e-05  4.5140716323217292e-04  1.4414999446185168e-03  3.3997688362299330e-03  6.1730022879810664e-03  8.9038553594887829e-03  1.0289331824716511e-02  9.3986040988506443e-03  6.5017853420746225e-03  2.9454917313819686e-03  1.8886024465869253e-04  -9.9848647563413953e-04  -9.3736640740661500e-13  3.8218958398385669e-12  2.1472170734226988e-12  -1.5541906549692003e-10  4.5402340694621342e-10  5.5207076279648562e-09  -2.9676301546141298e-08  -3.3217371041358724e-07  -8.6193798767834205e-09  1.2812320374315985e-05  8.9292942263008516e-05  3.4907958310300650e-04  9.3489166842764795e-04  1.8412994988581117e-03  2.7534117327090296e-03  3.1246474810439277e-03  2.5879408704574647e-03  1.3547502572413361e-03  8.7936016520507679e-05  -6.9502343352748259e-04  -1.0183008081153027e-03  -6.6921175308311473e-13  1.5896527467719399e-12  5.2036622189863878e-12  -1.0335108425188626e-10  -1.4760761336607164e-12  5.0101753443725872e-09  6.5775774926075774e-09  -1.6983572378833908e-07  -8.6219137628167301e-07  5.5723181306329552e-07  2.2310233696401848e-05  1.1640007455870258e-04  3.5487345912165624e-04  7.4255133983118125e-04  1.1129000320910173e-03  1.1657981508812780e-03  7.2784002888018557e-04  -7.8133786165899116e-07  -5.7192968998177256e-04  -7.3798132442937591e-04  -6.9238782410539930e-04  </DataArray> 
</PointData> 
</Piece>
</UnstructuredGrid>
</VTKFile>