<?xml version="1.0"?>
<VTKFile type="UnstructuredGrid"  version="0.1"  >
<UnstructuredGrid>
<Piece  NumberOfPoints="441" NumberOfCells="800">
<Points>
<DataArray  type="Float64"  NumberOfComponents="3"  format="ascii">-2 -2 0  -1.8 -2 0  -1.6 -2 0  -1.4 -2 0  -1.2 -2 0  -1 -2 0  -0.8 -2 0  -0.6000000000000001 -2 0  -0.3999999999999999 -2 0  -0.2 -2 0  0 -2 0  0.2000000000000002 -2 0  0.3999999999999999 -2 0  0.6000000000000001 -2 0  0.7999999999999998 -2 0  1 -2 0  1.2 -2 0  1.4 -2 0  1.6 -2 0  1.8 -2 0  2 -2 0  -2 -1.8 0  -1.8 -1.8 0  -1.6 -1.8 0  -1.4 -1.8 0  -1.2 -1.8 0  -1 -1.8 0  -0.8 -1.8 0  -0.6000000000000001 -1.8 0  -0.3999999999999999 -1.8 0  -0.2 -1.8 0  0 -1.8 0  0.2000000000000002 -1.8 0  0.3999999999999999 -1.8 0  0.6000000000000001 -1.8 0  0.7999999999999998 -1.8 0  1 -1.8 0  1.2 -1.8 0  1.4 -1.8 0  1.6 -1.8 0  1.8 -1.8 0  2 -1.8 0  -2 -1.6 0  -1.8 -1.6 0  -1.6 -1.6 0  -1.4 -1.6 0  -1.2 -1.6 0  -1 -1.6 0  -0.8 -1.6 0  -0.6000000000000001 -1.6 0  -0.3999999999999999 -1.6 0  -0.2 -1.6 0  0 -1.6 0  0.2000000000000002 -1.6 0  0.3999999999999999 -1.6 0  0.6000000000000001 -1.6 0  0.7999999999999998 -1.6 0  1 -1.6 0  1.2 -1.6 0  1.4 -1.6 0  1.6 -1.6 0  1.8 -1.6 0  2 -1.6 0  -2 -1.4 0  -1.8 -1.4 0  -1.6 -1.4 0  -1.4 -1.4 0  -1.2 -1.4 0  -1 -1.4 0  -0.8 -1.4 0  -0.6000000000000001 -1.4 0  -0.3999999999999999 -1.4 0  -0.2 -1.4 0  0 -1.4 0  0.2000000000000002 -1.4 0  0.3999999999999999 -1.4 0  0.6000000000000001 -1.4 0  0.7999999999999998 -1.4 0  1 -1.4 0  1.2 -1.4 0  1.4 -1.4 0  1.6 -1.4 0  1.8 -1.4 0  2 -1.4 0  -2 -1.2 0  -1.8 -1.2 0  -1.6 -1.2 0  -1.4 -1.2 0  -1.2 -1.2 0  -1 -1.2 0  -0.8 -1.2 0  -0.6000000000000001 -1.2 0  -0.3999999999999999 -1.2 0  -0.2 -1.2 0  0 -1.2 0  0.2000000000000002 -1.2 0  0.3999999999999999 -1.2 0  0.6000000000000001 -1.2 0  0.7999999999999998 -1.2 0  1 -1.2 0  1.2 -1.2 0  1.4 -1.2 0  1.6 -1.2 0  1.8 -1.2 0  2 -1.2 0  -2 -1 0  -1.8 -1 0  -1.6 -1 0  -1.4 -1 0  -1.2 -1 0  -1 -1 0  -0.8 -1 0  -0.6000000000000001 -1 0  -0.3999999999999999 -1 0  -0.2 -1 0  0 -1 0  0.2000000000000002 -1 0  0.3999999999999999 -1 0  0.6000000000000001 -1 0  0.7999999999999998 -1 0  1 -1 0  1.2 -1 0  1.4 -1 0  1.6 -1 0  1.8 -1 0  2 -1 0  -2 -0.8 0  -1.8 -0.8 0  -1.6 -0.8 0  -1.4 -0.8 0  -1.2 -0.8 0  -1 -0.8 0  -0.8 -0.8 0  -0.6000000000000001 -0.8 0  -0.3999999999999999 -0.8 0  -0.2 -0.8 0  0 -0.8 0  0.2000000000000002 -0.8 0  0.3999999999999999 -0.8 0  0.6000000000000001 -0.8 0  0.7999999999999998 -0.8 0  1 -0.8 0  1.2 -0.8 0  1.4 -0.8 0  1.6 -0.8 0  1.8 -0.8 0  2 -0.8 0  -2 -0.6000000000000001 0  -1.8 -0.6000000000000001 0  -1.6 -0.6000000000000001 0  -1.4 -0.6000000000000001 0  -1.2 -0.6000000000000001 0  -1 -0.6000000000000001 0  -0.8 -0.6000000000000001 0  -0.6000000000000001 -0.6000000000000001 0  -0.3999999999999999 -0.6000000000000001 0  -0.2 -0.6000000000000001 0  0 -0.6000000000000001 0  0.2000000000000002 -0.6000000000000001 0  0.3999999999999999 -0.6000000000000001 0  0.6000000000000001 -0.6000000000000001 0  0.7999999999999998 -0.6000000000000001 0  1 -0.6000000000000001 0  1.2 -0.6000000000000001 0  1.4 -0.6000000000000001 0  1.6 -0.6000000000000001 0  1.8 -0.6000000000000001 0  2 -0.6000000000000001 0  -2 -0.3999999999999999 0  -1.8 -0.3999999999999999 0  -1.6 -0.3999999999999999 0  -1.4 -0.3999999999999999 0  -1.2 -0.3999999999999999 0  -1 -0.3999999999999999 0  -0.8 -0.3999999999999999 0  -0.6000000000000001 -0.3999999999999999 0  -0.3999999999999999 -0.3999999999999999 0  -0.2 -0.3999999999999999 0  0 -0.3999999999999999 0  0.2000000000000002 -0.3999999999999999 0  0.3999999999999999 -0.3999999999999999 0  0.6000000000000001 -0.3999999999999999 0  0.7999999999999998 -0.3999999999999999 0  1 -0.3999999999999999 0  1.2 -0.3999999999999999 0  1.4 -0.3999999999999999 0  1.6 -0.3999999999999999 0  1.8 -0.3999999999999999 0  2 -0.3999999999999999 0  -2 -0.2 0  -1.8 -0.2 0  -1.6 -0.2 0  -1.4 -0.2 0  -1.2 -0.2 0  -1 -0.2 0  -0.8 -0.2 0  -0.6000000000000001 -0.2 0  -0.3999999999999999 -0.2 0  -0.2 -0.2 0  0 -0.2 0  0.2000000000000002 -0.2 0  0.3999999999999999 -0.2 0  0.6000000000000001 -0.2 0  0.7999999999999998 -0.2 0  1 -0.2 0  1.2 -0.2 0  1.4 -0.2 0  1.6 -0.2 0  1.8 -0.2 0  2 -0.2 0  -2 0 0  -1.8 0 0  -1.6 0 0  -1.4 0 0  -1.2 0 0  -1 0 0  -0.8 0 0  -0.6000000000000001 0 0  -0.3999999999999999 0 0  -0.2 0 0  0 0 0  0.2000000000000002 0 0  0.3999999999999999 0 0  0.6000000000000001 0 0  0.7999999999999998 0 0  1 0 0  1.2 0 0  1.4 0 0  1.6 0 0  1.8 0 0  2 0 0  -2 0.2000000000000002 0  -1.8 0.2000000000000002 0  -1.6 0.2000000000000002 0  -1.4 0.2000000000000002 0  -1.2 0.2000000000000002 0  -1 0.2000000000000002 0  -0.8 0.2000000000000002 0  -0.6000000000000001 0.2000000000000002 0  -0.3999999999999999 0.2000000000000002 0  -0.2 0.2000000000000002 0  0 0.2000000000000002 0  0.2000000000000002 0.2000000000000002 0  0.3999999999999999 0.2000000000000002 0  0.6000000000000001 0.2000000000000002 0  0.7999999999999998 0.2000000000000002 0  1 0.2000000000000002 0  1.2 0.2000000000000002 0  1.4 0.2000000000000002 0  1.6 0.2000000000000002 0  1.8 0.2000000000000002 0  2 0.2000000000000002 0  -2 0.3999999999999999 0  -1.8 0.3999999999999999 0  -1.6 0.3999999999999999 0  -1.4 0.3999999999999999 0  -1.2 0.3999999999999999 0  -1 0.3999999999999999 0  -0.8 0.3999999999999999 0  -0.6000000000000001 0.3999999999999999 0  -0.3999999999999999 0.3999999999999999 0  -0.2 0.3999999999999999 0  0 0.3999999999999999 0  0.2000000000000002 0.3999999999999999 0  0.3999999999999999 0.3999999999999999 0  0.6000000000000001 0.3999999999999999 0  0.7999999999999998 0.3999999999999999 0  1 0.3999999999999999 0  1.2 0.3999999999999999 0  1.4 0.3999999999999999 0  1.6 0.3999999999999999 0  1.8 0.3999999999999999 0  2 0.3999999999999999 0  -2 0.6000000000000001 0  -1.8 0.6000000000000001 0  -1.6 0.6000000000000001 0  -1.4 0.6000000000000001 0  -1.2 0.6000000000000001 0  -1 0.6000000000000001 0  -0.8 0.6000000000000001 0  -0.6000000000000001 0.6000000000000001 0  -0.3999999999999999 0.6000000000000001 0  -0.2 0.6000000000000001 0  0 0.6000000000000001 0  0.2000000000000002 0.6000000000000001 0  0.3999999999999999 0.6000000000000001 0  0.6000000000000001 0.6000000000000001 0  0.7999999999999998 0.6000000000000001 0  1 0.6000000000000001 0  1.2 0.6000000000000001 0  1.4 0.6000000000000001 0  1.6 0.6000000000000001 0  1.8 0.6000000000000001 0  2 0.6000000000000001 0  -2 0.7999999999999998 0  -1.8 0.7999999999999998 0  -1.6 0.7999999999999998 0  -1.4 0.7999999999999998 0  -1.2 0.7999999999999998 0  -1 0.7999999999999998 0  -0.8 0.7999999999999998 0  -0.6000000000000001 0.7999999999999998 0  -0.3999999999999999 0.7999999999999998 0  -0.2 0.7999999999999998 0  0 0.7999999999999998 0  0.2000000000000002 0.7999999999999998 0  0.3999999999999999 0.7999999999999998 0  0.6000000000000001 0.7999999999999998 0  0.7999999999999998 0.7999999999999998 0  1 0.7999999999999998 0  1.2 0.7999999999999998 0  1.4 0.7999999999999998 0  1.6 0.7999999999999998 0  1.8 0.7999999999999998 0  2 0.7999999999999998 0  -2 1 0  -1.8 1 0  -1.6 1 0  -1.4 1 0  -1.2 1 0  -1 1 0  -0.8 1 0  -0.6000000000000001 1 0  -0.3999999999999999 1 0  -0.2 1 0  0 1 0  0.2000000000000002 1 0  0.3999999999999999 1 0  0.6000000000000001 1 0  0.7999999999999998 1 0  1 1 0  1.2 1 0  1.4 1 0  1.6 1 0  1.8 1 0  2 1 0  -2 1.2 0  -1.8 1.2 0  -1.6 1.2 0  -1.4 1.2 0  -1.2 1.2 0  -1 1.2 0  -0.8 1.2 0  -0.6000000000000001 1.2 0  -0.3999999999999999 1.2 0  -0.2 1.2 0  0 1.2 0  0.2000000000000002 1.2 0  0.3999999999999999 1.2 0  0.6000000000000001 1.2 0  0.7999999999999998 1.2 0  1 1.2 0  1.2 1.2 0  1.4 1.2 0  1.6 1.2 0  1.8 1.2 0  2 1.2 0  -2 1.4 0  -1.8 1.4 0  -1.6 1.4 0  -1.4 1.4 0  -1.2 1.4 0  -1 1.4 0  -0.8 1.4 0  -0.6000000000000001 1.4 0  -0.3999999999999999 1.4 0  -0.2 1.4 0  0 1.4 0  0.2000000000000002 1.4 0  0.3999999999999999 1.4 0  0.6000000000000001 1.4 0  0.7999999999999998 1.4 0  1 1.4 0  1.2 1.4 0  1.4 1.4 0  1.6 1.4 0  1.8 1.4 0  2 1.4 0  -2 1.6 0  -1.8 1.6 0  -1.6 1.6 0  -1.4 1.6 0  -1.2 1.6 0  -1 1.6 0  -0.8 1.6 0  -0.6000000000000001 1.6 0  -0.3999999999999999 1.6 0  -0.2 1.6 0  0 1.6 0  0.2000000000000002 1.6 0  0.3999999999999999 1.6 0  0.6000000000000001 1.6 0  0.7999999999999998 1.6 0  1 1.6 0  1.2 1.6 0  1.4 1.6 0  1.6 1.6 0  1.8 1.6 0  2 1.6 0  -2 1.8 0  -1.8 1.8 0  -1.6 1.8 0  -1.4 1.8 0  -1.2 1.8 0  -1 1.8 0  -0.8 1.8 0  -0.6000000000000001 1.8 0  -0.3999999999999999 1.8 0  -0.2 1.8 0  0 1.8 0  0.2000000000000002 1.8 0  0.3999999999999999 1.8 0  0.6000000000000001 1.8 0  0.7999999999999998 1.8 0  1 1.8 0  1.2 1.8 0  1.4 1.8 0  1.6 1.8 0  1.8 1.8 0  2 1.8 0  -2 2 0  -1.8 2 0  -1.6 2 0  -1.4 2 0  -1.2 2 0  -1 2 0  -0.8 2 0  -0.6000000000000001 2 0  -0.3999999999999999 2 0  -0.2 2 0  0 2 0  0.2000000000000002 2 0  0.3999999999999999 2 0  0.6000000000000001 2 0  0.7999999999999998 2 0  1 2 0  1.2 2 0  1.4 2 0  1.6 2 0  1.8 2 0  2 2 0  </DataArray>
</Points>
<Cells>
[...]
<PointData  Scalars="f_18-1"> 
<DataArray  type="Float64"  Name="f_18-1"  format="ascii">-3.1386323721339685e-10  2.3651863089722986e-10  1.0080851287354634e-09  -8.5414485359941637e-10  -3.8645851949397304e-09  1.2314765065886935e-10  7.4707797014801376e-09  5.1239783493611616e-09  -2.3319287842895090e-09  -3.4336741414337873e-09  -1.2539857902167203e-09  -4.6834586850712392e-10  -2.0043429494835762e-10  -1.6107267171148143e-11  1.8799398608210605e-11  1.9861937667547068e-11  6.3226753843663143e-12  -3.4480137259767059e-13  -2.2421211841913426e-13  4.7248394144028411e-13  3.6490901366847283e-13  8.4489822271600539e-11  3.8529753456285685e-10  -4.5559365046731367e-10  -2.2517146639222220e-09  1.5252141215086675e-09  8.5387331863539921e-09  1.3053056602367716e-09  -1.4322343838807155e-08  -1.1759053626489369e-08  1.2811074926831995e-09  3.7604393715482465e-09  1.1310202022082088e-09  3.2435308888790580e-10  -9.9775717603148175e-12  -1.0332451154531846e-10  -4.4108517396221782e-11  -1.2197606201533090e-11  1.6957516522419449e-12  -4.1418785771729683e-13  -1.4634226106995216e-12  -7.7562623884110529e-13  4.5258028345512252e-10  -1.2514189139671014e-10  -1.9320673862775521e-09  1.3278567951549327e-09  1.1138921789867335e-08  -2.5443758960744359e-09  -3.8372308776044962e-08  -1.8622971485692002e-08  4.7907046446433521e-08  5.1325304714294291e-08  9.0761334396260484e-09  -2.3116170718277018e-09  1.1975024673131804e-09  1.0305245766853895e-09  7.9500914336361283e-10  2.4144682808761185e-10  -3.6723888036275313e-11  -3.2936357359601800e-11  4.2818247845651082e-12  1.1610968668322746e-11  2.1759307145726933e-12  1.8861181438854634e-10  -9.3972391056149866e-10  5.5739943436931707e-11  8.7424354434661289e-09  -2.5723100644295171e-09  -5.1390647002257551e-08  -8.4826608820688800e-09  1.6107559376523057e-07  1.3036977861277284e-07  -1.3369670711577342e-07  -1.9257997009427055e-07  -6.3232638845543167e-08  -1.8907463993432885e-08  -1.3602378450707736e-08  -4.8217208670341763e-09  -1.3051073978265009e-09  5.8225798916160608e-10  3.7609365222207954e-10  2.1972565948042992e-12  -7.1417167180665187e-11  -6.1191022412779662e-12  -3.5946890049063733e-10  -4.7525396353248013e-10  3.7300864003876900e-09  1.8576823479063189e-09  -3.8477229968919054e-08  -8.5753968911336245e-09  2.2771679436480186e-07  1.4682945090509869e-07  -6.1521546504208042e-07  -7.5920751881445058e-07  2.0060402470880304e-07  5.8630054728441712e-07  2.2782759085285036e-07  8.3483487845877158e-08  3.1409137970455025e-08  7.0185121699873548e-10  -3.8235172609946779e-09  -2.7404649603482439e-09  -6.6811218950123968e-11  2.3171801923125781e-10  7.7917270843048892e-12  -3.7855670959578326e-10  5.5675930350691444e-10  2.5706866058357147e-09  -1.4084215689432471e-08  -1.8805807316526122e-08  1.6120790784941560e-07  1.4748535445690502e-07  -9.3631818397312284e-07  -1.1955058130166722e-06  1.9353352694185904e-06  3.7975929445577628e-06  7.8085403256316555e-07  -1.1666829634119734e-06  -3.6486209987037515e-07  -7.9927409195371947e-08  3.6278292718248618e-08  3.5297667447806056e-08  9.7822100214653256e-09  -6.4769289546597083e-10  -2.4461900408073608e-10  6.3473957907537049e-10  -1.0511304958974588e-10  6.2991927867101568e-10  -1.1567280974728412e-09  -1.2105523828980216e-08  4.7954202793929129e-08  1.3133174475778950e-07  -6.1558856474998362e-07  -1.1997254573515490e-06  3.3057655467890552e-06  7.5992098132786170e-06  -3.2188827298007465e-06  -1.5748236753352118e-05  -8.7116538122583786e-06  -1.9778124390808364e-07  -9.1424900475419566e-07  -4.8879615900676485e-07  -2.7957935077993903e-07  -6.7295159126476752e-10  2.1885619051809312e-08  5.1091411371551308e-10  -9.4732115246234772e-09  -1.0631063871771311e-11  2.1444738266174218e-10  -1.7177522192237790e-09  8.1633762504060760e-10  5.1717455477868581e-08  -1.3332300359623072e-07  -7.6478070755851263e-07  1.9342616969961970e-06  7.6263547272388380e-06  -7.6884356802768796e-06  -3.9952885605924349e-05  -1.6394734573232492e-05  4.6237790877002802e-05  4.2944505734092138e-05  1.0427744756522144e-05  5.8554503852773720e-06  8.8020898944306012e-07  -1.5523670627736474e-07  -2.9469899696109919e-07  2.1484555546175931e-08  5.1763032623958743e-08  -1.7114749674204212e-11  6.9790231750431354e-11  -6.3062908755499277e-10  3.5255179588699572e-09  9.3898319277809215e-09  -1.9379147581349322e-07  1.9695004528097243e-07  3.8288867868532858e-06  -3.1858373543697941e-06  -4.0121683777718817e-05  -1.2835351992672519e-05  1.6227619966428442e-04  2.0691659428212172e-04  -1.8946817554794328e-05  -1.0799593042978438e-04  -1.8094903399860019e-05  -4.2093249588990859e-07  4.3334465426752576e-06  1.4398727767281998e-06  -4.6781625239678599e-07  4.3742954390673156e-10  -1.0728553957931357e-11  4.6636964122267433e-11  -2.3603115911880998e-10  1.0440755006733169e-09  -2.2222041968972126e-09  -6.4295582751553754e-08  5.9038285967117013e-07  8.0981629874128925e-07  -1.5914681856817608e-05  -1.6811916328102171e-05  1.6324029245200650e-04  3.0708767842940895e-04  -3.2506790063441780e-04  -1.1512249504055593e-03  -7.8255650086425709e-04  -1.0217768520813116e-04  -8.2778395007074250e-05  -4.8188796472120895e-05  7.2298638349934205e-06  2.1883433532499013e-06  -1.1750462290292710e-06  -5.3111664126240761e-12  1.7148965500172533e-11  -1.0019073567508890e-10  2.7994897643818159e-10  1.2201802657400854e-09  -1.9230771251028539e-08  2.3146971580341741e-07  -1.1756674536403332e-06  -8.9163847781742181e-06  4.6994267290427365e-05  2.1129486596623532e-04  -3.2947739447354145e-04  -2.1333028114827336e-03  -2.0009876329899049e-03  1.9289650826440630e-03  3.7918048603804359e-03  1.4213163855734574e-03  -1.0731618475487270e-04  -8.3498193163859059e-05  6.2654287238084196e-06  2.7541602539068970e-06  -2.0321804193837714e-12  4.5436796772037385e-12  -6.3194965245396553e-12  -3.0970219716664844e-11  1.0373604668386479e-09  -1.3680414934767628e-08  8.4508520888384141e-08  -3.7335085311855445e-07  -2.0951551730397898e-07  4.4224509753830613e-05  -2.0720254865542345e-05  -1.1957246156034220e-03  -2.0151428632353861e-03  5.6813785163985506e-03  2.1832123311583310e-02  2.6770506629148604e-02  1.4194478907033023e-02  2.7244065895690841e-03  -1.0860167893124595e-04  -4.7989466876900398e-05  8.7345390709736962e-06  1.7813999739471892e-13  -7.1383206864474418e-13  1.0140786212249593e-11  -1.1375484013542749e-10  8.1193795404931748e-10  -4.8000573059090830e-09  3.1527890908171210e-08  -8.1259388432947939e-08  -9.1354933628106994e-07  1.0669499494633239e-05  -1.1452905588458259e-04  -8.1306860753601652e-04  2.1732212070865167e-03  2.2157383417348093e-02  5.7813486851450269e-02  7.2218435584461449e-02  4.6401923513207648e-02  1.4194823818462342e-02  1.4188748422395623e-03  -7.7967088897787834e-05  -8.2648127343275960e-07  3.7670879933443705e-13  -1.4090628059753791e-12  8.4090680355659842e-12  -4.4850125943879324e-11  2.7600333602152220e-10  -1.3527291835926228e-09  4.4880919086358880e-10  3.7009076618008832e-08  -4.9271256653336745e-07  5.9384379498419788e-06  -1.9071720449285219e-05  -9.1767438304256053e-05  4.1291417241104056e-03  2.7308435956375460e-02  7.2239293075681277e-02  9.8437478939384773e-02  7.2219832444318011e-02  2.6770940768587867e-02  3.7887702974221896e-03  -8.6318109889153383e-05  -3.6209853003576822e-05  1.2736110974174422e-13  -3.2922391607088738e-13  1.3813949072880772e-12  -5.0816038985450946e-12  -2.3024357695870727e-11  4.4373069555193262e-10  -3.6433355221227815e-09  3.6640173723077221e-08  -2.8400908933787910e-07  8.8744884395029178e-07  -5.0727217902311784e-07  -8.4582216396493224e-05  1.4693948353803354e-03  1.4336205674252861e-02  4.6365140947334640e-02  7.2205711452646232e-02  5.7791844664155649e-02  2.1833712514079954e-02  1.9240030536886725e-03  -7.6424862251601511e-04  -2.1599161807796783e-04  -4.1610072860899139e-14  9.8419876498796342e-14  -9.1065653117284571e-13  7.4969698122399777e-12  -4.6804692017441113e-11  3.0904165458019843e-10  -2.1659603382688426e-09  8.9618364983850741e-09  -5.8046819170033642e-09  -1.4409114843211941e-07  4.4125288732908742e-06  -4.8520494691613888e-05  -1.0850515014453509e-04  2.7241272263800699e-03  1.4175058472347889e-02  2.6770018524177073e-02  2.1837282421689315e-02  5.6627370766936481e-03  -2.0059982610419846e-03  -1.1269170541581722e-03  -3.7876491035864308e-05  -3.6833975531087165e-14  1.0230205085550396e-13  -3.6582905600881241e-13  1.4819734194362602e-12  -9.0592827567818488e-12  2.6611894645341160e-11  2.4182185916429298e-10  -2.9308922164980713e-09  2.4932376473504198e-08  -2.7104833489039487e-07  1.3762571843428423e-06  7.1036369927191119e-06  -8.3484747722419316e-05  -1.0778458069888151e-04  1.4202676433190654e-03  3.7941426634453450e-03  1.9297445201356786e-03  -2.0003432200807122e-03  -2.1292639978046234e-03  -3.1036065253493708e-04  4.1380132396723378e-04  -2.2562906447650426e-15  7.8570213899344257e-15  2.4616547303356076e-14  -7.6952275867593425e-13  8.0807480208624950e-12  -5.0320590485400878e-11  2.4057330393953395e-10  -1.5182513700380337e-09  8.7191710815335486e-09  1.4120028231233039e-08  -5.8820683047590794e-07  2.4902996713573326e-06  7.0775042609773331e-06  -4.8173402663625548e-05  -8.2637321827824903e-05  -1.0191533000988059e-04  -7.8291585658244963e-04  -1.1510591882305584e-03  -3.2640640524528108e-04  2.9223548852382996e-04  3.2437069936536796e-04  1.7650879593948733e-15  -3.0110350254254219e-15  1.7418546120676470e-14  -1.8326536362076618e-13  1.4312274368731971e-12  -8.5603786883333069e-12  2.3884067434723657e-11  3.2131816423689732e-10  -4.9585221794764081e-09  2.6139102730528319e-08  1.7712729342928439e-09  -5.8812418907607860e-07  1.3656239090953801e-06  4.3479684372260683e-06  -4.2090382017019582e-07  -1.8062335532508334e-05  -1.0793706532432689e-04  -1.8616756447567087e-05  2.0794045020688741e-04  1.4669639316365122e-04  -2.5472476435278924e-05  -1.2535486845462956e-15  4.0287847873820593e-15  -3.4544167820419877e-14  2.2425837550651877e-13  -9.6170155090833814e-13  3.2381681035644431e-12  -1.7713797532276395e-11  9.2103451592791004e-11  1.7230207245959884e-10  -5.3950928593396304e-09  2.4327972211875881e-08  8.2114056735083135e-09  -2.6813645588701817e-07  -8.7982309512346787e-08  9.6086234125047194e-07  5.9211240815682282e-06  1.0269921577852423e-05  4.2800358000458146e-05  4.7246443228246085e-05  -1.5062327321684706e-05  -7.6789857088178126e-05  -1.4121029685681457e-15  2.8840034419203013e-15  -1.0327376718884616e-14  4.8456044485729972e-14  -2.4040624974590514e-13  -1.5858598332647329e-13  1.7611916292761345e-11  -1.5414215079798490e-10  5.4661772534998975e-10  3.7871859864158376e-10  -9.4725997211743559e-09  1.7544058109058275e-08  4.9455027643861732e-08  -1.1604515313586193e-08  -5.6426113721330438e-07  -9.7548278086446279e-07  -1.8128757176507760e-06  -4.8362304352595861e-07  -1.7515634369809471e-05  -2.6909496569013203e-05  -7.0948708431247246e-06  </DataArray> 
</PointData> 
</Piece>
</UnstructuredGrid>
</VTKFile>