<?xml version="1.0"?>
<VTKFile type="UnstructuredGrid"  version="0.1"  >
<UnstructuredGrid>
<Piece  NumberOfPoints="441" NumberOfCells="800">
<Points>
<DataArray  type="Float64"  NumberOfComponents="3"  format="ascii">-2 -2 0  -1.8 -2 0  -1.6 -2 0  -1.4 -2 0  -1.2 -2 0  -1 -2 0  -0.8 -2 0  -0.6000000000000001 -2 0  -0.3999999999999999 -2 0  -0.2 -2 0  0 -2 0  0.2000000000000002 -2 0  0.3999999999999999 -2 0  0.6000000000000001 -2 0  0.7999999999999998 -2 0  1 -2 0  1.2 -2 0  1.4 -2 0  1.6 -2 0  1.8 -2 0  2 -2 0  -2 -1.8 0  -1.8 -1.8 0  -1.6 -1.8 0  -1.4 -1.8 0  -1.2 -1.8 0  -1 -1.8 0  -0.8 -1.8 0  -0.6000000000000001 -1.8 0  -0.3999999999999999 -1.8 0  -0.2 -1.8 0  0 -1.8 0  0.2000000000000002 -1.8 0  0.3999999999999999 -1.8 0  0.6000000000000001 -1.8 0  0.7999999999999998 -1.8 0  1 -1.8 0  1.2 -1.8 0  1.4 -1.8 0  1.6 -1.8 0  1.8 -1.8 0  2 -1.8 0  -2 -1.6 0  -1.8 -1.6 0  -1.6 -1.6 0  -1.4 -1.6 0  -1.2 -1.6 0  -1 -1.6 0  -0.8 -1.6 0  -0.6000000000000001 -1.6 0  -0.3999999999999999 -1.6 0  -0.2 -1.6 0  0 -1.6 0  0.2000000000000002 -1.6 0  0.3999999999999999 -1.6 0  0.6000000000000001 -1.6 0  0.7999999999999998 -1.6 0  1 -1.6 0  1.2 -1.6 0  1.4 -1.6 0  1.6 -1.6 0  1.8 -1.6 0  2 -1.6 0  -2 -1.4 0  -1.8 -1.4 0  -1.6 -1.4 0  -1.4 -1.4 0  -1.2 -1.4 0  -1 -1.4 0  -0.8 -1.4 0  -0.6000000000000001 -1.4 0  -0.3999999999999999 -1.4 0  -0.2 -1.4 0  0 -1.4 0  0.2000000000000002 -1.4 0  0.3999999999999999 -1.4 0  0.6000000000000001 -1.4 0  0.7999999999999998 -1.4 0  1 -1.4 0  1.2 -1.4 0  1.4 -1.4 0  1.6 -1.4 0  1.8 -1.4 0  2 -1.4 0  -2 -1.2 0  -1.8 -1.2 0  -1.6 -1.2 0  -1.4 -1.2 0  -1.2 -1.2 0  -1 -1.2 0  -0.8 -1.2 0  -0.6000000000000001 -1.2 0  -0.3999999999999999 -1.2 0  -0.2 -1.2 0  0 -1.2 0  0.2000000000000002 -1.2 0  0.3999999999999999 -1.2 0  0.6000000000000001 -1.2 0  0.7999999999999998 -1.2 0  1 -1.2 0  1.2 -1.2 0  1.4 -1.2 0  1.6 -1.2 0  1.8 -1.2 0  2 -1.2 0  -2 -1 0  -1.8 -1 0  -1.6 -1 0  -1.4 -1 0  -1.2 -1 0  -1 -1 0  -0.8 -1 0  -0.6000000000000001 -1 0  -0.3999999999999999 -1 0  -0.2 -1 0  0 -1 0  0.2000000000000002 -1 0  0.3999999999999999 -1 0  0.6000000000000001 -1 0  0.7999999999999998 -1 0  1 -1 0  1.2 -1 0  1.4 -1 0  1.6 -1 0  1.8 -1 0  2 -1 0  -2 -0.8 0  -1.8 -0.8 0  -1.6 -0.8 0  -1.4 -0.8 0  -1.2 -0.8 0  -1 -0.8 0  -0.8 -0.8 0  -0.6000000000000001 -0.8 0  -0.3999999999999999 -0.8 0  -0.2 -0.8 0  0 -0.8 0  0.2000000000000002 -0.8 0  0.3999999999999999 -0.8 0  0.6000000000000001 -0.8 0  0.7999999999999998 -0.8 0  1 -0.8 0  1.2 -0.8 0  1.4 -0.8 0  1.6 -0.8 0  1.8 -0.8 0  2 -0.8 0  -2 -0.6000000000000001 0  -1.8 -0.6000000000000001 0  -1.6 -0.6000000000000001 0  -1.4 -0.6000000000000001 0  -1.2 -0.6000000000000001 0  -1 -0.6000000000000001 0  -0.8 -0.6000000000000001 0  -0.6000000000000001 -0.6000000000000001 0  -0.3999999999999999 -0.6000000000000001 0  -0.2 -0.6000000000000001 0  0 -0.6000000000000001 0  0.2000000000000002 -0.6000000000000001 0  0.3999999999999999 -0.6000000000000001 0  0.6000000000000001 -0.6000000000000001 0  0.7999999999999998 -0.6000000000000001 0  1 -0.6000000000000001 0  1.2 -0.6000000000000001 0  1.4 -0.6000000000000001 0  1.6 -0.6000000000000001 0  1.8 -0.6000000000000001 0  2 -0.6000000000000001 0  -2 -0.3999999999999999 0  -1.8 -0.3999999999999999 0  -1.6 -0.3999999999999999 0  -1.4 -0.3999999999999999 0  -1.2 -0.3999999999999999 0  -1 -0.3999999999999999 0  -0.8 -0.3999999999999999 0  -0.6000000000000001 -0.3999999999999999 0  -0.3999999999999999 -0.3999999999999999 0  -0.2 -0.3999999999999999 0  0 -0.3999999999999999 0  0.2000000000000002 -0.3999999999999999 0  0.3999999999999999 -0.3999999999999999 0  0.6000000000000001 -0.3999999999999999 0  0.7999999999999998 -0.3999999999999999 0  1 -0.3999999999999999 0  1.2 -0.3999999999999999 0  1.4 -0.3999999999999999 0  1.6 -0.3999999999999999 0  1.8 -0.3999999999999999 0  2 -0.3999999999999999 0  -2 -0.2 0  -1.8 -0.2 0  -1.6 -0.2 0  -1.4 -0.2 0  -1.2 -0.2 0  -1 -0.2 0  -0.8 -0.2 0  -0.6000000000000001 -0.2 0  -0.3999999999999999 -0.2 0  -0.2 -0.2 0  0 -0.2 0  0.2000000000000002 -0.2 0  0.3999999999999999 -0.2 0  0.6000000000000001 -0.2 0  0.7999999999999998 -0.2 0  1 -0.2 0  1.2 -0.2 0  1.4 -0.2 0  1.6 -0.2 0  1.8 -0.2 0  2 -0.2 0  -2 0 0  -1.8 0 0  -1.6 0 0  -1.4 0 0  -1.2 0 0  -1 0 0  -0.8 0 0  -0.6000000000000001 0 0  -0.3999999999999999 0 0  -0.2 0 0  0 0 0  0.2000000000000002 0 0  0.3999999999999999 0 0  0.6000000000000001 0 0  0.7999999999999998 0 0  1 0 0  1.2 0 0  1.4 0 0  1.6 0 0  1.8 0 0  2 0 0  -2 0.2000000000000002 0  -1.8 0.2000000000000002 0  -1.6 0.2000000000000002 0  -1.4 0.2000000000000002 0  -1.2 0.2000000000000002 0  -1 0.2000000000000002 0  -0.8 0.2000000000000002 0  -0.6000000000000001 0.2000000000000002 0  -0.3999999999999999 0.2000000000000002 0  -0.2 0.2000000000000002 0  0 0.2000000000000002 0  0.2000000000000002 0.2000000000000002 0  0.3999999999999999 0.2000000000000002 0  0.6000000000000001 0.2000000000000002 0  0.7999999999999998 0.2000000000000002 0  1 0.2000000000000002 0  1.2 0.2000000000000002 0  1.4 0.2000000000000002 0  1.6 0.2000000000000002 0  1.8 0.2000000000000002 0  2 0.2000000000000002 0  -2 0.3999999999999999 0  -1.8 0.3999999999999999 0  -1.6 0.3999999999999999 0  -1.4 0.3999999999999999 0  -1.2 0.3999999999999999 0  -1 0.3999999999999999 0  -0.8 0.3999999999999999 0  -0.6000000000000001 0.3999999999999999 0  -0.3999999999999999 0.3999999999999999 0  -0.2 0.3999999999999999 0  0 0.3999999999999999 0  0.2000000000000002 0.3999999999999999 0  0.3999999999999999 0.3999999999999999 0  0.6000000000000001 0.3999999999999999 0  0.7999999999999998 0.3999999999999999 0  1 0.3999999999999999 0  1.2 0.3999999999999999 0  1.4 0.3999999999999999 0  1.6 0.3999999999999999 0  1.8 0.3999999999999999 0  2 0.3999999999999999 0  -2 0.6000000000000001 0  -1.8 0.6000000000000001 0  -1.6 0.6000000000000001 0  -1.4 0.6000000000000001 0  -1.2 0.6000000000000001 0  -1 0.6000000000000001 0  -0.8 0.6000000000000001 0  -0.6000000000000001 0.6000000000000001 0  -0.3999999999999999 0.6000000000000001 0  -0.2 0.6000000000000001 0  0 0.6000000000000001 0  0.2000000000000002 0.6000000000000001 0  0.3999999999999999 0.6000000000000001 0  0.6000000000000001 0.6000000000000001 0  0.7999999999999998 0.6000000000000001 0  1 0.6000000000000001 0  1.2 0.6000000000000001 0  1.4 0.6000000000000001 0  1.6 0.6000000000000001 0  1.8 0.6000000000000001 0  2 0.6000000000000001 0  -2 0.7999999999999998 0  -1.8 0.7999999999999998 0  -1.6 0.7999999999999998 0  -1.4 0.7999999999999998 0  -1.2 0.7999999999999998 0  -1 0.7999999999999998 0  -0.8 0.7999999999999998 0  -0.6000000000000001 0.7999999999999998 0  -0.3999999999999999 0.7999999999999998 0  -0.2 0.7999999999999998 0  0 0.7999999999999998 0  0.2000000000000002 0.7999999999999998 0  0.3999999999999999 0.7999999999999998 0  0.6000000000000001 0.7999999999999998 0  0.7999999999999998 0.7999999999999998 0  1 0.7999999999999998 0  1.2 0.7999999999999998 0  1.4 0.7999999999999998 0  1.6 0.7999999999999998 0  1.8 0.7999999999999998 0  2 0.7999999999999998 0  -2 1 0  -1.8 1 0  -1.6 1 0  -1.4 1 0  -1.2 1 0  -1 1 0  -0.8 1 0  -0.6000000000000001 1 0  -0.3999999999999999 1 0  -0.2 1 0  0 1 0  0.2000000000000002 1 0  0.3999999999999999 1 0  0.6000000000000001 1 0  0.7999999999999998 1 0  1 1 0  1.2 1 0  1.4 1 0  1.6 1 0  1.8 1 0  2 1 0  -2 1.2 0  -1.8 1.2 0  -1.6 1.2 0  -1.4 1.2 0  -1.2 1.2 0  -1 1.2 0  -0.8 1.2 0  -0.6000000000000001 1.2 0  -0.3999999999999999 1.2 0  -0.2 1.2 0  0 1.2 0  0.2000000000000002 1.2 0  0.3999999999999999 1.2 0  0.6000000000000001 1.2 0  0.7999999999999998 1.2 0  1 1.2 0  1.2 1.2 0  1.4 1.2 0  1.6 1.2 0  1.8 1.2 0  2 1.2 0  -2 1.4 0  -1.8 1.4 0  -1.6 1.4 0  -1.4 1.4 0  -1.2 1.4 0  -1 1.4 0  -0.8 1.4 0  -0.6000000000000001 1.4 0  -0.3999999999999999 1.4 0  -0.2 1.4 0  0 1.4 0  0.2000000000000002 1.4 0  0.3999999999999999 1.4 0  0.6000000000000001 1.4 0  0.7999999999999998 1.4 0  1 1.4 0  1.2 1.4 0  1.4 1.4 0  1.6 1.4 0  1.8 1.4 0  2 1.4 0  -2 1.6 0  -1.8 1.6 0  -1.6 1.6 0  -1.4 1.6 0  -1.2 1.6 0  -1 1.6 0  -0.8 1.6 0  -0.6000000000000001 1.6 0  -0.3999999999999999 1.6 0  -0.2 1.6 0  0 1.6 0  0.2000000000000002 1.6 0  0.3999999999999999 1.6 0  0.6000000000000001 1.6 0  0.7999999999999998 1.6 0  1 1.6 0  1.2 1.6 0  1.4 1.6 0  1.6 1.6 0  1.8 1.6 0  2 1.6 0  -2 1.8 0  -1.8 1.8 0  -1.6 1.8 0  -1.4 1.8 0  -1.2 1.8 0  -1 1.8 0  -0.8 1.8 0  -0.6000000000000001 1.8 0  -0.3999999999999999 1.8 0  -0.2 1.8 0  0 1.8 0  0.2000000000000002 1.8 0  0.3999999999999999 1.8 0  0.6000000000000001 1.8 0  0.7999999999999998 1.8 0  1 1.8 0  1.2 1.8 0  1.4 1.8 0  1.6 1.8 0  1.8 1.8 0  2 1.8 0  -2 2 0  -1.8 2 0  -1.6 2 0  -1.4 2 0  -1.2 2 0  -1 2 0  -0.8 2 0  -0.6000000000000001 2 0  -0.3999999999999999 2 0  -0.2 2 0  0 2 0  0.2000000000000002 2 0  0.3999999999999999 2 0  0.6000000000000001 2 0  0.7999999999999998 2 0  1 2 0  1.2 2 0  1.4 2 0  1.6 2 0  1.8 2 0  2 2 0  </DataArray>
</Points>
<Cells>
[...]
<PointData  Scalars="f_18-1"> 
<DataArray  type="Float64"  Name="f_18-1"  format="ascii">-1.2078523338650728e-08  -2.3233484693403494e-08  -1.5837690700971112e-08  6.2088535735827740e-08  1.7752930660089539e-07  1.5452562802833703e-07  -1.6736298889785047e-07  -6.3459059125117967e-07  -7.7607932994762981e-07  -2.8612169311947238e-07  5.4733993770666218e-07  1.0876472424615085e-06  1.0038573427380121e-06  5.2731137804369366e-07  9.0306616095139812e-08  -1.0343716449538081e-07  -1.1350148789668971e-07  -5.5610408589902945e-08  -1.3773932644259008e-09  1.6591988699242207e-09  -6.2248727750706951e-10  -1.8010066271091480e-08  -1.1046319674347759e-08  2.4640054887035489e-08  9.8744196437545613e-08  1.0772635717028444e-07  -1.2215726576552221e-07  -5.6057644077465479e-07  -7.5697927697592819e-07  -1.7695389788884017e-07  1.0654045775601704e-06  2.0469820456414068e-06  1.9002814776523334e-06  7.3360898030604107e-07  -5.2761656858487074e-07  -1.1094581082589774e-06  -9.8035213111481496e-07  -5.6465254322320936e-07  -2.0698849438522465e-07  -3.1072891753699894e-08  -3.9970774868119728e-08  -2.0892486806086507e-08  -1.3092673962550902e-08  1.8467884133289955e-08  8.9238663291899337e-08  9.4543345763480409e-08  -1.9323208186115656e-07  -8.0287342342494692e-07  -1.0690715142698940e-06  1.3208031252352962e-07  2.9476338224252233e-06  5.3990624267464829e-06  4.6857399862676504e-06  2.1390319944515426e-07  -5.2972495467455557e-06  -8.2576461369410833e-06  -7.4164942648722470e-06  -4.3960326113983720e-06  -1.5484013028391233e-06  -3.0245584630911893e-08  2.2556139341041620e-07  -1.8635763348260491e-07  -4.9414747934500393e-08  1.9733422452045497e-08  5.7935972160277422e-08  8.4138269430909356e-08  -1.5317897118997144e-07  -8.1785226964028545e-07  -1.2511985293556129e-06  3.2867377322086555e-07  5.0102803482590493e-06  9.9597028242430034e-06  8.4627645998501285e-06  -3.7584224399191748e-06  -2.1813798768290199e-05  -3.3911206407471242e-05  -3.1665867013643120e-05  -1.7380261292289383e-05  -1.0936501720236681e-06  8.5657440781784326e-06  9.7962248822711731e-06  5.8214192062208065e-06  1.2215782097774572e-06  1.3417129597494258e-06  5.9622456842936394e-08  6.0463374858209597e-08  -7.7063800391701834e-08  -6.1341069143586458e-07  -1.1537387213346695e-06  2.6760059870183026e-07  5.9886690309321111e-06  1.3638611797494963e-05  1.1985822553304698e-05  -1.2088098723592774e-05  -5.5692915190293722e-05  -9.1732540056248659e-05  -8.7980215678749431e-05  -3.6674244843002293e-05  3.6657002040479851e-05  9.2749397375624880e-05  1.0803689921180638e-04  8.6638969310443616e-05  4.9575810492710563e-05  1.9559361660025512e-05  1.6093832409489902e-05  6.1599091871607365e-08  -1.0947219947843049e-08  -3.3470426751673813e-07  -8.3061598158361172e-07  -1.2618978706950341e-08  5.0967653316380239e-06  1.4116434674431548e-05  1.4202489472827367e-05  -1.9363325786391575e-05  -9.6652828425815315e-05  -1.7665532754726832e-04  -1.7436259321962859e-04  -3.1370542312138704e-05  2.2198916347862567e-04  4.7829695733642342e-04  6.2097100174608169e-04  5.9978522663016779e-04  4.5268916750375126e-04  2.6711088433331337e-04  1.2940823002263694e-04  1.0172637083762574e-04  8.6008749219479573e-09  -1.1914741079097490e-07  -4.4752257693805622e-07  -2.1718093863092983e-07  3.0424464966698315e-06  1.0970764732412389e-05  1.4030749381492967e-05  -1.8393001954704426e-05  -1.1821511994625947e-04  -2.5250630159218053e-04  -2.7014496396456669e-04  2.4415281829264003e-05  6.7762400855221107e-04  1.5045428657399272e-03  2.1972636315052627e-03  2.4814233709438429e-03  2.2702421844011536e-03  1.7029345526784990e-03  1.0483975299992196e-03  5.7083768351572984e-04  4.4685561666478186e-04  -6.0006270346897250e-08  -1.6860148360026937e-07  -2.0792948351627612e-07  1.2139433721441344e-06  6.2462689976932591e-06  1.0895708194221970e-05  -1.0015479084305139e-05  -1.0280069211392385e-04  -2.7046375815219383e-04  -3.4353899451959298e-04  6.5760125269398662e-05  1.3079133550962390e-03  3.2427840785450948e-03  5.2751901148911260e-03  6.7682207552969718e-03  7.2190128295681645e-03  6.4977442884854471e-03  4.9390053284950773e-03  3.1805537193725303e-03  1.8820869550834195e-03  1.4891077373245059e-03  -8.7261847132795157e-08  -1.0551912852692852e-07  2.8481483896814023e-07  2.4980056659858796e-06  6.2105618383311375e-06  -2.0301472913846143e-06  -6.2760830678509365e-05  -2.1377531790479809e-04  -3.4638227632492291e-04  6.3761955831301481e-06  1.6606611727300363e-03  5.1239708711952629e-03  9.5213112244026780e-03  1.3365590521267656e-02  1.5867282538232743e-02  1.6387639814044327e-02  1.4725944258204816e-02  1.1438354162170759e-02  7.7050012589135655e-03  4.8745412704685829e-03  3.9250675445658256e-03  -6.0253079234238927e-08  1.6049987798038610e-08  6.5499111675325448e-07  2.4487910032766543e-06  1.0643956206987775e-06  -2.5901189487074216e-05  -1.2049752007412029e-04  -2.5812519634553781e-04  -8.4927866264934563e-05  1.3987974618464361e-03  5.8138521959032559e-03  1.3901933867228411e-02  2.2243587692509295e-02  2.7390277621756894e-02  3.0131381808648210e-02  3.0244580593454477e-02  2.7251051609495213e-02  2.1689134220137948e-02  1.5254139377494378e-02  1.0211000862890196e-02  8.3925663095208280e-03  -1.6076089654918996e-08  9.4378402384378405e-08  6.2729392505981037e-07  9.4117202761558146e-07  -6.6045986314076525e-06  -4.6048909141678515e-05  -1.3250276827607367e-04  -9.9671230578832979e-05  8.3811591907593684e-04  4.6542271110940449e-03  1.5160532474977817e-02  3.4202636535427738e-02  4.8548454262176390e-02  4.9770502482114481e-02  4.8794027601570276e-02  4.7000484615047702e-02  4.2344682095688521e-02  3.4476851909378714e-02  2.5206419889871882e-02  1.7690250841716996e-02  1.4840213883526356e-02  8.8368390545640525e-09  9.1853882596251709e-08  3.1493446515155439e-07  -7.9122186575078232e-07  -1.1143309965531966e-05  -4.4949579442617748e-05  -5.9360296481360452e-05  3.2611572420117372e-04  2.5223477146577582e-03  1.0195435208535223e-02  3.2383233801463900e-02  7.9155538612192822e-02  1.0816743448002612e-01  8.8713396380680778e-02  7.1016976609747928e-02  6.3550226189706155e-02  5.6776244192995075e-02  4.7057698365443247e-02  3.5509384767274180e-02  2.5861790681023924e-02  2.2080903430095555e-02  1.1643087785497397e-08  5.1031312598012132e-08  3.3277814204543186e-08  -1.5081220765365186e-06  -9.7188246476426161e-06  -2.2344992732402008e-05  6.5986768741370055e-05  8.2512709314097458e-04  4.1836266561984890e-03  1.5260812163924491e-02  4.7553196307216737e-02  1.2310684714904908e-01  1.8347549418390854e-01  1.4527522871541221e-01  9.4603359687964655e-02  7.6310084872706685e-02  6.7156191548763247e-02  5.6351486473614633e-02  4.3484330747619829e-02  3.2471541457437809e-02  2.8072252047776518e-02  6.6737746484110878e-09  1.8958101958844340e-08  -7.0395993029014708e-08  -1.2108888565407153e-06  -5.1627704902197409e-06  2.3237582022701064e-06  1.5353416059818957e-04  1.0511076872226745e-03  4.5975909036651275e-03  1.5544374107277386e-02  4.5103749856546561e-02  1.1444727384035583e-01  1.8702096170505669e-01  1.6115953770967836e-01  1.0203558125126622e-01  7.9956864109370085e-02  7.0788783823763884e-02  6.0082299211612539e-02  4.6938556282957178e-02  3.5444484380142777e-02  3.0810934532294481e-02  2.7128700666027685e-09  5.5521333744148671e-09  -5.9674751438675472e-08  -6.3710721669497754e-07  -1.5314265851643763e-06  1.3616217438195256e-05  1.5962580432420917e-04  9.1688376621458989e-04  3.7029648403795815e-03  1.1647093608199922e-02  3.0262858921644376e-02  6.7700388061203598e-02  1.1615918617913390e-01  1.1701642645851691e-01  8.5933742042815120e-02  7.3233406888071798e-02  6.7011875588186692e-02  5.7419423333484508e-02  4.4888663117601264e-02  3.3735428274444999e-02  2.9227308489853176e-02  9.5133779708877471e-10  2.0353152034439120e-09  -2.6867398854298498e-08  -2.4953950499761926e-07  -2.2267846657140302e-08  1.2704889333178800e-05  1.1519049797572302e-04  6.2067830009502559e-04  2.4239855921811843e-03  7.3540390409260227e-03  1.7942051309706490e-02  3.5835617512922198e-02  5.7166476504177242e-02  6.5463913156404221e-02  6.2146306939344316e-02  6.0411284762670409e-02  5.7116540764040311e-02  4.8978247558078239e-02  3.7785843017827447e-02  2.7734000789170751e-02  2.3666638889042180e-02  3.4486062828077318e-10  1.1181232849435969e-09  -8.2689423845773905e-09  -8.6082112933034782e-08  1.7961081961540436e-07  7.3428763033878968e-06  6.3502398925417307e-05  3.4180296246846554e-04  1.3423400662192525e-03  4.0828287608895564e-03  9.8953209675974232e-03  1.9371096264063633e-02  3.0618390374544429e-02  3.8787893541817969e-02  4.3166037375083281e-02  4.5217034626886463e-02  4.3210630787943363e-02  3.6639973776515830e-02  2.7460513193054873e-02  1.9215529871192457e-02  1.5854362944672223e-02  1.0559664371349333e-10  4.6365474422957798e-10  -2.3678855066813574e-09  -3.3224529365386555e-08  4.7754842339695472e-08  2.9265519751404525e-06  2.7216469242151332e-05  1.5389612177628444e-04  6.2865997513858604e-04  1.9773744032663128e-03  4.9392172326476417e-03  9.9707523878617664e-03  1.6472493773251554e-02  2.2686384402076688e-02  2.7330890371023622e-02  2.9498389537900911e-02  2.8138478210667194e-02  2.3345829304657714e-02  1.6675274223169157e-02  1.0717531396132901e-02  8.2339102806203834e-03  -5.8829387064948744e-12  9.0380064379400037e-11  -3.2478783388474303e-10  -1.0052563877884846e-08  -1.1791303858978790e-08  7.6730867016446675e-07  8.7153725171601178e-06  5.4846591234717756e-05  2.4195993842726496e-04  8.1021560429994763e-04  2.1396290591013454e-03  4.5587952888442584e-03  7.9781454637888587e-03  1.1702934944349749e-02  1.4770553838672550e-02  1.6197264706267818e-02  1.5296241883325762e-02  1.2222577403357996e-02  8.0399661979128657e-03  4.3588117155792918e-03  2.7629807955787608e-03  -2.3506758912073765e-11  2.1997468258237122e-11  4.9240287138700863e-10  -9.9779889868582287e-10  -2.5648200254241456e-08  -2.4820246382398697e-08  1.3730936648668327e-06  1.3345997004620577e-05  7.2414409990851207e-05  2.7672268659972388e-04  8.0556802584984179e-04  1.8573613638677032e-03  3.4768732812212942e-03  5.3894489610246676e-03  7.0281735919545561e-03  7.7313004996001009e-03  7.0851262729341368e-03  5.2361845162385611e-03  2.8644465054507881e-03  8.5666499297665721e-04  -5.1709677468715278e-05  -1.3195206088542042e-11  1.1278137213558383e-11  3.1200263778139699e-10  -2.3056219670428913e-10  -1.8025785884549105e-08  -7.7785582668301238e-08  3.2757955201274863e-07  5.6258234193912470e-06  3.5599866516001810e-05  1.4796457189857195e-04  4.5678225571288411e-04  1.1027954616075980e-03  2.1423925605006094e-03  3.4115058490264689e-03  4.4998129463103935e-03  4.9015835828025382e-03  4.3139205802599388e-03  2.8825988226589571e-03  1.1525494750770835e-03  -2.4989454495967354e-04  -9.6089681060956974e-04  </DataArray> 
</PointData> 
</Piece>
</UnstructuredGrid>
</VTKFile>