<?xml version="1.0"?>
<VTKFile type="UnstructuredGrid"  version="0.1"  >
<UnstructuredGrid>
<Piece  NumberOfPoints="3221" NumberOfCells="6251">
<Points>
<DataArray  type="Float64"  NumberOfComponents="3"  format="ascii">3.8 0 0  3.795276300631905 0.1894143655106492 0  3.781116946388525 0.3783578170641033 0  3.757557139655488 0.5663606114694628 0  3.724655453824466 0.7529553441577108 0  3.682493687670496 0.9376781112231157 0  3.631176661987335 1.120069662761436 0  3.570831958986452 1.299676544637541 0  3.501609605107549 1.47605222584384 0  3.423681698029192 1.648758208646721 0  3.337241978806868 1.817365118761009 0  3.242505350202192 1.981453772842092 0  3.139707342400781 2.140616220641764 0  3.029103527447105 2.294456759236814 0  2.910968883852117 2.442592916808849 0  2.78559711295334 2.584656403529493 0  2.653299908727077 2.72029402718693 0  2.514406182868066 2.84916857127739 0  2.369261247063188 2.970959633378513 0  2.218225954492202 3.085364421720254 0  2.061675802689886 3.192098507972931 0  1.9 3.290896534380867 0  1.73360049794202 3.38151287348358 0  1.562890991896324 3.463722238784357 0  1.388295892592301 3.537320244847976 0  1.210249270956401 3.602123915435101 0  1.029193778943419 3.657972138410046 0  0.8455795490339949 3.70472606629093 0  0.6598630751343355 3.74226946144639 0  0.472506077660444 3.770508985080653 0  0.2839743556284126 3.789374429288484 0  0.09473662860467753 3.798818891603101 0  -0.09473662860467705 3.798818891603101 0  -0.2839743556284122 3.789374429288484 0  -0.4725060776604436 3.770508985080653 0  -0.6598630751343352 3.74226946144639 0  -0.8455795490339945 3.70472606629093 0  -1.029193778943419 3.657972138410046 0  -1.2102492709564 3.602123915435101 0  -1.3882958925923 3.537320244847976 0  -1.562890991896323 3.463722238784358 0  -1.733600497942018 3.381512873483581 0  -1.9 3.290896534380867 0  -2.061675802689885 3.192098507972932 0  -2.2182259544922 3.085364421720255 0  -2.369261247063187 2.970959633378513 0  -2.514406182868065 2.849168571277391 0  -2.653299908727076 2.72029402718693 0  -2.78559711295334 2.584656403529493 0  -2.910968883852116 2.44259291680885 0  -3.029103527447105 2.294456759236814 0  -3.13970734240078 2.140616220641764 0  -3.242505350202191 1.981453772842093 0  -3.337241978806869 1.817365118761009 0  -3.423681698029192 1.648758208646721 0  -3.501609605107549 1.47605222584384 0  -3.570831958986451 1.299676544637542 0  -3.631176661987334 1.120069662761437 0  -3.682493687670496 0.9376781112231165 0  -3.724655453824466 0.7529553441577108 0  -3.757557139655488 0.5663606114694638 0  -3.781116946388525 0.3783578170641035 0  -3.795276300631905 0.1894143655106504 0  -3.8 4.653657836759942e-16 0  -3.795276300631905 -0.1894143655106495 0  -3.781116946388525 -0.3783578170641026 0  -3.757557139655488 -0.5663606114694629 0  -3.724655453824466 -0.75295534415771 0  -3.682493687670496 -0.9376781112231157 0  -3.631176661987335 -1.120069662761435 0  -3.570831958986452 -1.299676544637541 0  -3.501609605107549 -1.47605222584384 0  -3.423681698029192 -1.64875820864672 0  -3.337241978806869 -1.817365118761008 0  -3.242505350202192 -1.981453772842092 0  -3.139707342400781 -2.140616220641764 0  -3.029103527447106 -2.294456759236813 0  -2.910968883852117 -2.442592916808849 0  -2.785597112953341 -2.584656403529493 0  -2.653299908727077 -2.72029402718693 0  -2.514406182868067 -2.849168571277389 0  -2.369261247063188 -2.970959633378513 0  -2.218225954492204 -3.085364421720252 0  -2.061675802689885 -3.192098507972932 0  -1.899999999999999 -3.290896534380867 0  -1.73360049794202 -3.38151287348358 0  -1.562890991896324 -3.463722238784358 0  -1.388295892592304 -3.537320244847975 0  -1.210249270956403 -3.6021239154351 0  -1.029193778943418 -3.657972138410047 0  -0.8455795490339953 -3.704726066290929 0  -0.6598630751343352 -3.74226946144639 0  -0.4725060776604462 -3.770508985080653 0  -0.2839743556284139 -3.789374429288484 0  -0.09473662860467799 -3.798818891603101 0  0.09473662860467659 -3.798818891603101 0  0.2839743556284126 -3.789374429288484 0  0.4725060776604414 -3.770508985080654 0  0.6598630751343338 -3.742269461446391 0  0.8455795490339939 -3.70472606629093 0  1.029193778943419 -3.657972138410046 0  1.210249270956402 -3.6021239154351 0  1.388295892592299 -3.537320244847977 0  1.562890991896323 -3.463722238784358 0  1.733600497942019 -3.381512873483581 0  1.9 -3.290896534380867 0  2.061675802689887 -3.192098507972931 0  2.2182259544922 -3.085364421720255 0  2.369261247063187 -2.970959633378513 0  2.514406182868063 -2.849168571277392 0  2.653299908727077 -2.72029402718693 0  2.785597112953341 -2.584656403529493 0  2.910968883852116 -2.44259291680885 0  3.029103527447105 -2.294456759236815 0  3.139707342400779 -2.140616220641766 0  3.242505350202192 -1.981453772842092 0  3.337241978806868 -1.81736511876101 0  3.423681698029192 -1.648758208646721 0  3.501609605107549 -1.47605222584384 0  3.570831958986451 -1.299676544637544 0  3.631176661987334 -1.120069662761438 0  3.682493687670496 -0.9376781112231171 0  3.724655453824466 -0.7529553441577113 0  3.757557139655488 -0.5663606114694626 0  3.781116946388525 -0.3783578170641057 0  3.795276300631905 -0.1894143655106509 0  -2.775557561562891e-16 4.440892098500626e-16 0  1.292730005518549 -1.393231597934337 0  -0.9089650820886419 -1.66913978809273 0  0.9910349179113536 1.621756746288139 0  -0.9910349179113531 1.62175674628814 0  -1.9 -0.04738304180459378 0  2.030969811360066 0.2032291820762775 0  0.2982852697537555 -2.380259943517497 0  2.359223927328458e-16 2.486781296218546 0  -2.135437856882402 -1.379211996962513 0  -2.262151555014999 1.159737433781905 0  2.180412773174655 1.403243556162553 0  2.415416857256059 -0.9479812597433898 0  0.1556532731592992 -1.242083631834462 0  1.057213884222766 -0.3154037466500634 0  1.331543514538303 -2.426809344737528 0  -0.8242979376468454 -2.672308279761914 0  1.110223024625157e-16 1.486568249871433 0  1.095590716694607 2.599048265146119 0  -1.877387050372279 2.080735972995917 0  -0.9901198630484619 2.620921439359034 0  -2.777676568311451 -0.4897793226750063 0  0.7679088784629483 0.6444234416699117 0  2.127840748548167 -1.877830602318278 0  -0.963678305970453 0.5247912348278498 0  -0.6736553755797541 -0.7152147298136897 0  -1.706081757446276 -2.255130546671203 0  2.877329608409087 -0.1539270489216462 0  -2.666093104606852 0.3806645284425178 0  2.799876647123346 0.7459476385736085 0  1.682997556233562 2.041965660049523 0  -1.515930699408687 -0.8020025627712176 0  1.490394150749582 0.9936160148894964 0  1.78966109668193 -0.5171542496640607 0  0.0305935972706811 0.7432841249357166 0  -6.938893903907228e-16 -3.061342114423672 0  0.7554088135948869 -2.966677108464482 0  -1.506404100197765 1.060080369898687 0  -1.155042694730559 -0.1738861358899439 0  0.498288758590911 3.026039707153009 0  0.8363427985521557 -1.927887761215598 0  -0.3664896434934665 -2.128512198135668 0  -2.829229754587981 -1.276597080429429 0  -0.3103394657664985 3.101375893983614 0  -0.5586568920412109 1.091302235975717 0  1.366178605814844 0.3286067136150092 0  -2.939283115103045 1.016567120405128 0  -2.639737337335938 1.704923134498918 0  -2.3579094446965 -2.031452455042338 0  0.5871143132326373 2.159209026674702 0  -0.5537103323247154 2.120939001298361 0  -2.147412860788299 -0.6483529297285701 0  0.7741394201707831 -0.9419035714634143 0  2.358173467522995 2.054723728572074 0  2.828261887094994 1.393251731804238 0  2.717705841147458 -1.550864945431283 0  3.048262624398542 -0.8576481205732598 0  -2.062238995571612 0.56182847107472 0  -1.548305323341472 -1.634602236779449 0  -0.04129283307134041 -0.6359694221371053 0  1.800408492350239 2.6407142523932 0  -1.640523636404694 2.690453533544636 0  2.067160306370031 0.8080347988536571 0  1.905226740659084 -1.299588133772822 0  -3.195906444495454 0.0797009308753045 0  1.929731859532446 -2.547599800782949 0  -0.5980001975845042 0.0490881700898269 0  -1.38945297277479 -2.885228827497889 0  -0.3399330362131653 -1.547159013579239 0  0.274057699105381 -1.805270842116747 0  2.347341807900511 -0.377003275048551 0  0.4974550107964939 -0.4396865399843664 0  0.4581534995644975 1.133154182731769 0  0.551436139277494 0.1226369131399798 0  1.32499284337711 -0.8325578075352561 0  -1.518449827272067 0.3804361816144169 0  -1.553609276223015 1.620671804977614 0  -1.273287101906081 2.121598003990105 0  -0.5595976226544787 -3.179244350474185 0  1.653052955259165 1.50559967220562 0  1.305899464976363 -2.976795454477127 0  -1.056868015540404 -1.12667072433746 0  3.251792486864127 0.2436881583823702 0  -2.407696448913785 2.195353923578822 0  -0.9688651692542737 3.140983733578593 0  0.8127955740301804 -2.450566103824513 0  1.354897754480892 -1.908414685753757 0  -0.4569923894827791 0.5905796902894603 0  1.129495602017306 3.103263661915857 0  -3.157689295006909 -0.8599782508372372 0  -0.8680759691964396 -2.170845945896885 0  -2.152545204487552 -2.49458906702194 0  0.9894948192979027 1.107971765850859 0  -0.3067195635016146 -2.643437836840029 0  0.1059118711249781 1.986674773044989 0  0.4837982601235776 1.640073175100387 0  -0.4909054886541627 1.587971762405664 0  -0.4860359097619501 2.620459789266752 0  -2.052955751183701 1.613212525236004 0  0.6318615113157369 -1.436005929590713 0  2.368097538870139 -2.313078986443651 0  1.176520534042996 2.096151241934424 0  -2.370926301526895 -0.2049212868292061 0  3.285983840294513 -0.4272856688594585 0  -3.119725414309131 0.5624134789290348 0  -0.3009605614350038 -1.055398047841404 0  -1.030046163577358 1.000278794756973 0  1.636141178710457 -0.06512166258845309 0  2.408701180075335 0.4841120030689924 0  -3.242467816576344 -0.3928094844746495 0  -2.545824477774457 -0.9000683232688316 0  3.26258141133947 0.7078345824592359 0  -2.06346958924446 2.503892615333324 0  2.456010236189579 1.042425804572672 0  -1.969330645297325 -1.799930679742343 0  -2.524158362175437 -1.610685438040336 0  -1.265423342133114 -2.428299844566475 0  -0.3254925529794936 -0.2981913685170862 0  -0.992387774287371 -3.08265
[...]
<PointData  Scalars="f_29-1"> 
<DataArray  type="Float64"  Name="f_29-1"  format="ascii">6.2835750407987286e-03  -6.4743538968747381e-03  -2.0964427199836232e-02  -1.8773539783749467e-02  7.8947592804212586e-03  1.2521049085693530e-02  -3.2587197251975485e-03  -5.2080428413521593e-04  1.0985976138420827e-02  -2.0751916001160442e-02  1.1320733658170467e-02  5.7671425398603789e-03  -7.0332630983574310e-04  -1.2307953291990694e-02  1.0352912681145352e-02  -3.0751748638544667e-02  1.1905754188614140e-03  -5.2322450928526162e-03  -1.2988154779209379e-02  2.3399016667095991e-03  4.5756727862023118e-03  -1.0371793185691836e-02  1.2190846795057676e-02  -1.4212729984983845e-02  9.1827091818850130e-03  -5.6269551979374541e-03  -1.7854070612871079e-03  1.0120945321393810e-02  -1.2232512388288033e-02  -2.4017166173512228e-02  6.2121392019832853e-03  -3.4753678150876280e-02  1.2186695958732412e-02  3.6509361483676507e-03  8.4188692544278094e-03  -1.3845673393525111e-02  4.4720681204299222e-03  1.2579967843468978e-02  -1.3530488122071659e-04  -1.5166483528303595e-02  -1.3800867747969923e-02  -1.3505245491292625e-02  3.6819137867466238e-03  9.2058525287142690e-03  1.9463161450579494e-03  6.8619497529625074e-03  5.2561569639392744e-03  -5.7513128254203932e-03  4.6663011751392905e-03  -2.4649356016501995e-02  9.1200608405563877e-03  1.3269456305717138e-02  -2.1295371995876031e-02  8.9833625916057626e-03  -1.0614308157771122e-02  9.1554254197320530e-03  9.2622935691650584e-03  -7.7934282870551919e-03  1.4258831471091896e-02  5.4592568964894868e-03  -1.8449421976983672e-02  6.7823710953464379e-03  -2.1423116396120018e-02  1.9166733610660680e-02  -1.1822324504282939e-02  -1.0620528078521687e-04  -2.2996166050388143e-02  -7.6590063800588293e-03  5.3029127482692416e-03  1.3675474327666634e-03  9.0341755867787525e-03  4.3351710556876468e-03  7.5833659852616543e-03  9.5440507875939658e-03  -4.8089414951618219e-03  -1.5099726376539403e-03  -5.7047156318126933e-03  9.9639690275913836e-04  -9.8405847565644650e-03  -3.0824234123565091e-03  1.0161636310820172e-02  -1.7863489105045330e-02  -2.3757376205213891e-02  -1.1319475164501370e-02  2.6214458223381115e-04  -4.5768742969427853e-03  -6.3924101853208709e-03  -5.2277536702657213e-03  -1.4771892437425209e-02  -1.2961233073416775e-02  -1.1531278643310246e-02  7.9593151986803029e-03  2.6900143418405252e-03  -9.7075826396369920e-03  -3.6299115057350406e-03  -7.3887100457415552e-03  9.2596890928306063e-04  -1.1369903272184846e-02  1.2457109371232563e-02  3.5044924571562370e-03  -5.2880969370879029e-03  8.8742546800833644e-03  -2.0043175988835371e-02  1.0696052649861194e-03  -9.1408156581969397e-03  -4.6726007495666057e-03  1.0109463938676075e-02  1.3394162801900542e-02  7.6460637848482652e-03  2.7032205000184733e-03  6.7626679412524891e-03  1.1833816689440372e-02  5.7691058262991186e-03  1.7391120257331948e-03  -1.2687937931420560e-02  -9.3694144944402435e-03  1.7762566832520883e-02  7.2271637302884946e-03  2.0610339759150310e-03  -5.0746787556621561e-03  -5.8936853004820742e-03  -1.2788275549959299e-02  -1.4881237143307687e-02  -6.7432293759492673e-03  -2.5670711184933435e-02  -3.4372444475567298e-03  8.8058747785862290e-01  9.5629386031643648e-01  9.5632117371921566e-01  9.5626685104299280e-01  9.5623297230186344e-01  9.5629149835220983e-01  9.5240094139163967e-01  9.3605862537366213e-01  9.3041828024750217e-01  9.2686505871778180e-01  9.2678352749698378e-01  9.2315805803385087e-01  9.2306480534694457e-01  9.5222367538518027e-01  9.4529015834024510e-01  9.0949415459598382e-01  9.0727911258088578e-01  9.5838957948195125e-01  9.0484405260395195e-01  9.0634225759042153e-01  9.0645244357627219e-01  9.0479687660918762e-01  9.3935308496083458e-01  9.0329405733971679e-01  9.4499093489811337e-01  9.3808058652856141e-01  9.0451091223922642e-01  8.9932386055540947e-01  9.1552396397188696e-01  8.9791591559354922e-01  9.1923101122774697e-01  9.5906898574826005e-01  9.5826952905776142e-01  9.5704562263152260e-01  9.2058248634091955e-01  8.8148610776168723e-01  8.8139665401255840e-01  9.5749493300794575e-01  9.4858944899788700e-01  8.8051899851188431e-01  9.5032649069351383e-01  9.4802098746495167e-01  8.7691458216847296e-01  8.7486964310872029e-01  9.5118046555477231e-01  9.5687615173588869e-01  8.7587875560905781e-01  8.7228989318830863e-01  8.7619051086097932e-01  9.4445497085532248e-01  9.4655285307805581e-01  9.4425408864857019e-01  9.5088018638659877e-01  8.7411768201564766e-01  8.7109560256890028e-01  8.7415998909226877e-01  8.6962421341237950e-01  9.4887272838373093e-01  9.4386109186417599e-01  9.1214100944188137e-01  8.6614962948957563e-01  8.7093264190144959e-01  9.4536573064422669e-01  9.4107315612008824e-01  8.6583224818879301e-01  8.6639926173392734e-01  9.0920449801306347e-01  8.6707475658611288e-01  9.5927184733803261e-01  9.5776143436058847e-01  9.3720290612163426e-01  9.1424915082888736e-01  9.5103887324524106e-01  9.0647461981787558e-01  9.5918722225040109e-01  9.5918790878171178e-01  9.4416011442641834e-01  9.3133142502138544e-01  8.6375141134246480e-01  9.4454127715104819e-01  8.5997759119325790e-01  9.5903916161381819e-01  8.6152398579459422e-01  8.5984548803541838e-01  8.5784413210396060e-01  9.2414381872033891e-01  9.3929759864594375e-01  9.2080604000285760e-01  8.5425983267443828e-01  8.5777161953997294e-01  9.3957040251926560e-01  8.5859415302446429e-01  9.5836894147084817e-01  9.1824191946895073e-01  9.5398454465272464e-01  9.5913443875992255e-01  9.5935587009024770e-01  9.1775860501875528e-01  9.2183756791844251e-01  9.5921420989737693e-01  8.5623405054713597e-01  9.3567360105000219e-01  9.3704676321697389e-01  8.5151667025954281e-01  8.6874264335566620e-01  9.4500874725574435e-01  9.5754228794496177e-01  9.5941032124560988e-01  9.3251182840301283e-01  8.5935095989985766e-01  9.1500784563468474e-01  8.4886711120072089e-01  8.6308308051209748e-01  9.1763392991583148e-01  9.1768326215383678e-01  8.8843697128150789e-01  9.1228471709530368e-01  8.9742500206506448e-01  8.7017421864980271e-01  9.2501374774775047e-01  9.0467494787448199e-01  9.0850960605500375e-01  9.3331202605907249e-01  8.4526229351502724e-01  9.2128028904802639e-01  9.4088051231483982e-01  9.3357977080303678e-01  9.0994038200316274e-01  8.6576654697748368e-01  8.5649671703743624e-01  9.1251582853881230e-01  9.0975101965747596e-01  9.5778608342276883e-01  9.4829991657867252e-01  9.5414392876548160e-01  9.5779015353158437e-01  9.3821800765558461e-01  8.2681853201918054e-01  8.6844621291964152e-01  9.5608802741790455e-01  9.5834873952302280e-01  9.0590527966633416e-01  9.4394106766679620e-01  9.3438543185052680e-01  8.6891548585370149e-01  8.9596308429761329e-01  8.8668214019749980e-01  8.2786548251717063e-01  8.3729240177334652e-01  9.1123074058215792e-01  8.4997129128486049e-01  9.1947597617826116e-01  8.3902577470941431e-01  9.5636059708226329e-01  9.4662502709392937e-01  8.4155585445289394e-01  8.9304217251568918e-01  9.4693284197820604e-01  8.3807556794913929e-01  8.1790743378644215e-01  8.2576411018413043e-01  9.4401035614823681e-01  9.5316452555733766e-01  9.5681058413033071e-01  9.2776673902183082e-01  8.8810463847082421e-01  8.4154104163922139e-01  9.5846175076825724e-01  9.5704550624319795e-01  8.9491084370082341e-01  9.5831712931718394e-01  9.4286600850709101e-01  8.7264906178898294e-01  9.5867587529774678e-01  8.2972465672276430e-01  8.9332819228729243e-01  9.5724086791075602e-01  9.5559391981091779e-01  9.4622641499559823e-01  8.3089752808505568e-01  8.8872901100717372e-01  8.3393917952044372e-01  9.5785592400272945e-01  9.4987563402603947e-01  9.5911412025389053e-01  8.9760692853500490e-01  8.2584438407565830e-01  9.1690942012669374e-01  9.3431833626743854e-01  9.5815358562907993e-01  9.5018960613291692e-01  9.5585690714915117e-01  9.5015509121005237e-01  9.5363822520816299e-01  9.3094307588781999e-01  8.9118288583349214e-01  8.8738612575826392e-01  9.4613751314851346e-01  8.2780447670015611e-01  9.5364454864508807e-01  9.4358561412831021e-01  9.3455074036353680e-01  9.0903521291023170e-01  8.2418995626799196e-01  8.2795486217609171e-01  8.9165814965364898e-01  9.4470785162311188e-01  8.9924537962624274e-01  8.9305833158498960e-01  8.2689324655376384e-01  8.8675043752690552e-01  9.5046450525543658e-01  9.5926007432886840e-01  8.7525754340840067e-01  9.4385822719839785e-01  8.1863540879293017e-01  8.1739887550000945e-01  9.5907566232040253e-01  9.3455985438738620e-01  9.5267490209806338e-01  8.2453957274187084e-01  8.9580023249618734e-01  8.2791296613349130e-01  9.0472893077910310e-01  9.0053916547775648e-01  9.4652016903187841e-01  9.4919284512945556e-01  9.4124443545532122e-01  9.3106015135153242e-01  8.6596879590840992e-01  9.0750235186643857e-01  9.2804351900487747e-01  9.5919974622641002e-01  9.5720313622965880e-01  8.9153651803345035e-01  9.5072332525938041e-01  8.2130288260522488e-01  8.2226765017378700e-01  8.9077277352347006e-01  8.2167288709170150e-01  8.1830708205815939e-01  9.5174528719706941e-01  8.2464763606421254e-01  9.5054873464382850e-01  9.3249365657748162e-01  9.2034258140832725e-01  8.8449536940134510e-01  9.5696051605277543e-01  9.2918607770002926e-01  8.8320829361482700e-01  8.9173795044842075e-01  8.5465390621456305e-01  9.2910942320035306e-01  8.7202140063956868e-01  9.1743910151328867e-01  9.3564753836513936e-01  9.2602769902899074e-01  8.8980193555029574e-01  9.1081683595369167e-01  9.3545048500657746e-01  9.3761956060738227e-01  9.5505053033282583e-01  8.4495728117695623e-01  8.8786955618274588e-01  8.2402120797090495e-01  8.8732438920164602e-01  9.0378374606840617e-01  8.8178176442346212e-01  9.3261824010688221e-01  9.4700006837483675e-01  8.1902746557175721e-01  9.5941008327187660e-01  8.4122046894831681e-01  9.3490957366609084e-01  8.9207011751506249e-01  8.8031899634244604e-01  8.9401225713191657e-01  9.3465889371039756e-01  8.8194536169768978e-01  9.4993856288475620e-01  9.5523145212933436e-01  9.2925114143890775e-01  8.9457665311201251e-01  9.5292998878019219e-01  9.0611403852078443e-01  9.3346114568453820e-01  9.2468809892924841e-01  9.2293834351217519e-01  8.1819833212706194e-01  9.4338903460428847e-01  9.5443184915638091e-01  9.5884997902904101e-01  8.8228746134356772e-01  9.2372527997194687e-01  9.2646221047571542e-01  8.5881940528145650e-01  8.1378929974802949e-01  9.4787620564559083e-01  8.8941986778589777e-01  9.0175100758651106e-01  9.0839312000614314e-01  9.5011157287899350e-01  8.8857600404094639e-01  8.8907109848687349e-01  9.2947271933256037e-01  9.5903994017385263e-01  9.5621191757458035e-01  9.0112507268320141e-01  8.9008289224717452e-01  9.4978271626057031e-01  9.5455757570486721e-01  9.5895409402797449e-01  9.3006104330920158e-01  9.2310366884025941e-01  9.4630436944980967e-01  9.1106204641899380e-01  9.3671976651755917e-01  9.2794450233569081e-01  9.5526416034220130e-01  9.0578433493589716e-01  8.6499187053867110e-01  9.5936460139497981e-01  8.7668688651904558e-01  9.2371762875967856e-01  9.0976201709480620e-01  9.1283145537194377e-01  9.2088639418990037e-01  8.2328286735318568e-01  9.4696024920896504e-01  9.1454188989789853e-01  9.5212156062483544e-01  9.5938894368719774e-01  8.8470077511194067e-01  8.8292391736524034e-01  9.2130003163050878e-01  8.8785498255222328e-01  9.2097423037075221e-01  8.7857795714092624e-01  9.5922291009074334e-01  8.8695528588503736e-01  8.8773847448047882e-01  9.0835528828476109e-01  8.9737064846764913e-01  8.8795532258280241e-01  8.7352293418315585e-01  8.7057869982905622e-01  9.1855892573967690e-01  8.8103022608204962e-01  8.6927156452661802e-01  8.9064790625655188e-01  8.9927238318978220e-01  9.0300701654003468e-01  9.4485921569438736e-01  9.3686713672431610e-01  9.3385209180570661e-01  9.5402185332634382e-01  9.5586633217464401e-01  8.6971475286053557e-01  9.5758642227247337e-01  9.1139264207623361e-01  9.4612754356285467e-01  8.6854918762784883e-01  9.5427692076151804e-01  8.9591757263674343e-01  9.5427968030440224e-01  9.7036071974096361e-01  8.4258413849097658e-01  9.0949843831477417e-01  8.9103291601996093e-01  9.3204372821520654e-01  9.5106876301804821e-01  9.5540729936321611e-01  8.8250038356980831e-01  9.0757034778710133e-01  9.0542441690324205e-01  9.1970061605697728e-01  8.6217816625058141e-01  9.2543608606920980e-01  9.0252353332538371e-01  8.7999952818333393e-01  9.3869687848890049e-01  8.9472024124910055e-01  8.3878786437340613e-01  9.5930500377512884e-01  9.5926993158552865e-01  9.5904020613102881e-01  8.9757753912693439e-01  9.5930893354155578e-01  9.5122620654699042e-01  9.5629459130969696e-01  9.5266158195900841e-01  9.3501928081297048e-01  9.4786109556393139e-01  9.3020753934087164e-01  9.2138343056226513e-01  8.6051599070239404e-01  9.5837059930632762e-01  8.7972295108199838e-01  8.6585718215321017e-01  8.8222529470391919e-01  9.5663794464527008e-01  9.5900261358819783e-01  8.8198269232113058e-01  9.1753186104879725e-01  9.4391934939975197e-01  9.4977205523804997e-01  8.8863383208656122e-01  9.5817990395782293e-01  9.5877571151903274e-01  9.5766895236612193e-01  8.4085742518308659e-01  9.5939684419782456e-01  9.4301774484980561e-01  9.2697174446713482e-01  9.3860436387492596e-01  7.9075454433902637e-01  8.8022862539830793e-01  9.4834086525175632e-01  9.2162777353154635e-01  9.3790722384063951e-01  7.9791367129362567e-01  9.1485967543512303e-01  9.5027621215359326e-01  9.5580459552417152e-01  9.0511222114125822e-01  8.9323381394901202e-01  9.4680121538626016e-01  8.6461804562749878e-01  9.0890859381431732e-01  9.4459523830182901e-01  8.9418132421664587e-01  8.7460734733136525e-01  8.7162629094068622e-01  7.9012649674960622e-01  9.0270721058169956e-01  9.2844848167960392e-01  8.6554180864594488e-01  9.1450519177966305e-01  7.9830309010010991e-01  9.5870140812926496e-01  9.1547591264025174e-01  9.1932852316451763e-01  9.0266006293346979e-01  8.7263802042147920e-01  9.5540652220163336e-01  9.5706664384249518e-01  9.4389972579279580e-01  8.7009198368620255e-01  9.3973112919256319e-01  9.5493186484788251e-01  9.5199646599533594e-01  9.5930367120592741e-01  8.6822901480969428e-01  9.3054227148696966e-01  9.0259038765353750e-01  9.4625037467734963e-01  9.3042914564363166e-01  9.5924340119206541e-01  9.5697187157944885e-01  9.5766379233433552e-01  9.0926422344590430e-01  9.5668316712671464e-01  8.6178353259033658e-01  8.7197632482919463e-01  8.6664358845834388e-01  9.3707610061196667e-01  9.3100797006760072e-01  9.1355454576855166e-01  9.1343608789840225e-01  9.3987993713481210e-01  9.4154924579471277e-01  9.1609114928783553e-01  8.9195107031324028e-01  9.5838320967550150e-01  8.6410446734401714e-01  9.3877585259071394e-01  8.6278200774819103e-01  9.3437676249736112e-01  7.3876528366167693e-01  9.5141763307804283e-01  9.5640766082165196e-01  9.5815932485689070e-01  9.3477848162851662e-01  9.2045438713783867e-01  8.4146649516798389e-01  9.5164666762295624e-01  8.9365918944545364e-01  8.7592397182339099e-01  9.5790819804633287e-01  9.4368335614032584e-01  8.3787432107298565e-01  8.6060037349810392e-01  9.5490741594173512e-01  9.0958333543252168e-01  7.1361140663583345e-01  9.5937983183001219e-01  9.5886855006607874e-01  8.6687101717746329e-01  9.3987962287227123e-01  9.0490703310314424e-01  9.3306867956619466e-01  7.7380295100984287e-01  8.8821468385955482e-01  9.0953249995325269e-01  8.9929697175682843e-01  8.3910105392824030e-01  6.8262904078390008e-01  8.5857170928264392e-01  8.6031690752752732e-01  8.6288607245137827e-01  9.0928929767703648e-01  7.4140796964855760e-01  8.5376786348661637e-01  8.7122075361103057e-01  9.2501354701269423e-01  8.8717563660426446e-01  9.4335714775301882e-01  8.8678068873134730e-01  8.6365290453397270e-01  9.3292713014854001e-01  8.9885094912874941e-01  8.6988061569368991e-01  9.5277963255176013e-01  9.0111594520379767e-01  8.7830682787783332e-01  9.3536722317037690e-01  9.2812391651030424e-01  9.2065381514110445e-01  8.6733211669886712e-01  8.6357485446794824e-01  6.4945962910222155e-01  9.4418160580358823e-01  9.3767116702182840e-01  9.1973811106342751e-01  9.4187725250256626e-01  8.8866974367111584e-01  9.1493456332653134e-01  9.2561072704735448e-01  9.5522317935613443e-01  9.2667958773654180e-01  9.4312556203263154e-01  9.3715656124808322e-01  7.4582527238489371e-01  9.1147575271979286e-01  8.8279581077555214e-01  8.9353737594688398e-01  8.9948208309739996e-01  8.9014816088098014e-01  8.9105186422151650e-01  6.8714593424778647e-01  7.5107113831726757e-01  8.6458105516538664e-01  9.5053832223755430e-01  8.8776800500868647e-01  8.7440249745085186e-01  9.3237457059656681e-01  9.5396116693225741e-01  9.3582218826604202e-01  9.4100944003318399e-01  9.2418341297511453e-01  9.2839585894394616e-01  8.9398649804618258e-01  8.6544473981796100e-01  8.8973993832407916e-01  8.6524449207329690e-01  9.5242341645697970e-01  9.5816981114697697e-01  9.5931607615537684e-01  9.5937863163063242e-01  9.5316733974044010e-01  8.8412573115020976e-01  7.2912564518910483e-01  9.5569951594320879e-01  9.5874092706446146e-01  6.0853431194551599e-01  7.1827913015635425e-01  9.3234672787023110e-01  9.3794790858902244e-01  6.9853576255170602e-01  9.5295474133651126e-01  9.1917802712788155e-01  9.1489573394774792e-01  9.2437180209287184e-01  8.8945367678425380e-01  9.5624926370283547e-01  9.2322482900616976e-01  9.5250321956303041e-01  9.4110101882866670e-01  9.2288384108544586e-01  9.4969449664715411e-01  9.5687075028183366e-01  9.5890805263502576e-01  9.4982678457939440e-01  7.8255859924892712e-01  9.0970243355842273e-01  8.6613710039266811e-01  8.6230026647027358e-01  8.6380548936197532e-01  9.5538013718740511e-01  9.2628643979512337e-01  9.0139741897701608e-01  9.0689329787932471e-01  8.8379659238594654e-01  7.0992028341144253e-01  9.2994918522157188e-01  9.0577395290590068e-01  9.2070618556875006e-01  8.5426325985692031e-01  9.2898049516920644e-01  8.9820974741848114e-01  7.6354922958798233e-01  9.5823612156360483e-01  8.3529887780330270e-01  9.2097038274070797e-01  9.1097554189407837e-01  9.2262010372830616e-01  9.5113322862208094e-01  8.6905124158032621e-01  9.4826828809382613e-01  9.5189909994048805e-01  8.5959181753777414e-01  8.6516322802472778e-01  9.5928135763075428e-01  8.5816599666516669e-01  9.5745468418664226e-01  9.5314169377200164e-01  8.8947364841503185e-01  7.0631070748500446e-01  8.5024315105634074e-01  5.4444740811606840e-01  9.1511412987114582e-01  9.3351075396894301e-01  9.2364865856693035e-01  9.3980528836593857e-01  9.3852208472286358e-01  9.1977514705939312e-01  8.6110115591596692e-01  9.1824161422270767e-01  9.4833311083150063e-01  3.9447975270862723e-01  8.5989759727075110e-01  9.3720186128394967e-01  5.2874278213459791e-01  9.2952892679326304e-01  9.5745313221444706e-01  8.8881056114258916e-01  8.7195169841206954e-01  9.1138089309932113e-01  9.0783061465209347e-01  9.4718683079436061e-01  9.5380343185455185e-01  9.3623675638715287e-01  9.0506012917292966e-01  9.3723942287244577e-01  8.6707613824442309e-01  8.6530997861211145e-01  9.2367553404755831e-01  9.4550236030857249e-01  8.8439570149502555e-01  7.5195337212342694e-01  9.1389244541458425e-01  9.5834716016733335e-01  7.1685941998373270e-01  4.6393489282993172e-01  4.3719007668409704e-01  9.5923106734820374e-01  5.3339068054793926e-01  9.5939275863939089e-01  9.5908036361245474e-01  9.5812021868057562e-01  9.5348074404037253e-01  9.5701195040021658e-01  9.0490352818110575e-01  9.4206992380098642e-01  8.2740507135320895e-01  8.7432225023401688e-01  8.9841074821145683e-01  9.5383565053929242e-01  9.5764565693128068e-01  4.0880949216206364e-01  4.8440441202077061e-01  8.4563965843067146e-01  6.4843817394481096e-01  8.6279536445038985e-01  9.0739913084412183e-01  9.1472523879032408e-01  8.5936922692575890e-01  9.5198666678656707e-01  9.5719683463957361e-01  9.4751427048550452e-01  9.5469478262227592e-01  9.4578360510586601e-01  9.5906643236699940e-01  9.1629434540377086e-01  8.4554850237482604e-01  9.6237423653767784e-01  5.9279983865857444e-01  8.3938930332689032e-01  9.2608342071381911e-01  9.5794079264365795e-01  8.4804721505533731e-01