<?xml version="1.0"?>
<VTKFile type="UnstructuredGrid"  version="0.1"  >
<UnstructuredGrid>
<Piece  NumberOfPoints="961" NumberOfCells="1800">
<Points>
<DataArray  type="Float64"  NumberOfComponents="3"  format="ascii">0 0 0  0.03333333333333333 0 0  0.06666666666666667 0 0  0.1 0 0  0.1333333333333333 0 0  0.1666666666666667 0 0  0.2 0 0  0.2333333333333333 0 0  0.2666666666666667 0 0  0.3 0 0  0.3333333333333333 0 0  0.3666666666666666 0 0  0.4 0 0  0.4333333333333333 0 0  0.4666666666666667 0 0  0.5 0 0  0.5333333333333333 0 0  0.5666666666666667 0 0  0.6 0 0  0.6333333333333333 0 0  0.6666666666666666 0 0  0.7 0 0  0.7333333333333333 0 0  0.7666666666666667 0 0  0.8 0 0  0.8333333333333334 0 0  0.8666666666666667 0 0  0.9 0 0  0.9333333333333333 0 0  0.9666666666666667 0 0  1 0 0  0 0.03333333333333333 0  0.03333333333333333 0.03333333333333333 0  0.06666666666666667 0.03333333333333333 0  0.1 0.03333333333333333 0  0.1333333333333333 0.03333333333333333 0  0.1666666666666667 0.03333333333333333 0  0.2 0.03333333333333333 0  0.2333333333333333 0.03333333333333333 0  0.2666666666666667 0.03333333333333333 0  0.3 0.03333333333333333 0  0.3333333333333333 0.03333333333333333 0  0.3666666666666666 0.03333333333333333 0  0.4 0.03333333333333333 0  0.4333333333333333 0.03333333333333333 0  0.4666666666666667 0.03333333333333333 0  0.5 0.03333333333333333 0  0.5333333333333333 0.03333333333333333 0  0.5666666666666667 0.03333333333333333 0  0.6 0.03333333333333333 0  0.6333333333333333 0.03333333333333333 0  0.6666666666666666 0.03333333333333333 0  0.7 0.03333333333333333 0  0.7333333333333333 0.03333333333333333 0  0.7666666666666667 0.03333333333333333 0  0.8 0.03333333333333333 0  0.8333333333333334 0.03333333333333333 0  0.8666666666666667 0.03333333333333333 0  0.9 0.03333333333333333 0  0.9333333333333333 0.03333333333333333 0  0.9666666666666667 0.03333333333333333 0  1 0.03333333333333333 0  0 0.06666666666666667 0  0.03333333333333333 0.06666666666666667 0  0.06666666666666667 0.06666666666666667 0  0.1 0.06666666666666667 0  0.1333333333333333 0.06666666666666667 0  0.1666666666666667 0.06666666666666667 0  0.2 0.06666666666666667 0  0.2333333333333333 0.06666666666666667 0  0.2666666666666667 0.06666666666666667 0  0.3 0.06666666666666667 0  0.3333333333333333 0.06666666666666667 0  0.3666666666666666 0.06666666666666667 0  0.4 0.06666666666666667 0  0.4333333333333333 0.06666666666666667 0  0.4666666666666667 0.06666666666666667 0  0.5 0.06666666666666667 0  0.5333333333333333 0.06666666666666667 0  0.5666666666666667 0.06666666666666667 0  0.6 0.06666666666666667 0  0.6333333333333333 0.06666666666666667 0  0.6666666666666666 0.06666666666666667 0  0.7 0.06666666666666667 0  0.7333333333333333 0.06666666666666667 0  0.7666666666666667 0.06666666666666667 0  0.8 0.06666666666666667 0  0.8333333333333334 0.06666666666666667 0  0.8666666666666667 0.06666666666666667 0  0.9 0.06666666666666667 0  0.9333333333333333 0.06666666666666667 0  0.9666666666666667 0.06666666666666667 0  1 0.06666666666666667 0  0 0.1 0  0.03333333333333333 0.1 0  0.06666666666666667 0.1 0  0.1 0.1 0  0.1333333333333333 0.1 0  0.1666666666666667 0.1 0  0.2 0.1 0  0.2333333333333333 0.1 0  0.2666666666666667 0.1 0  0.3 0.1 0  0.3333333333333333 0.1 0  0.3666666666666666 0.1 0  0.4 0.1 0  0.4333333333333333 0.1 0  0.4666666666666667 0.1 0  0.5 0.1 0  0.5333333333333333 0.1 0  0.5666666666666667 0.1 0  0.6 0.1 0  0.6333333333333333 0.1 0  0.6666666666666666 0.1 0  0.7 0.1 0  0.7333333333333333 0.1 0  0.7666666666666667 0.1 0  0.8 0.1 0  0.8333333333333334 0.1 0  0.8666666666666667 0.1 0  0.9 0.1 0  0.9333333333333333 0.1 0  0.9666666666666667 0.1 0  1 0.1 0  0 0.1333333333333333 0  0.03333333333333333 0.1333333333333333 0  0.06666666666666667 0.1333333333333333 0  0.1 0.1333333333333333 0  0.1333333333333333 0.1333333333333333 0  0.1666666666666667 0.1333333333333333 0  0.2 0.1333333333333333 0  0.2333333333333333 0.1333333333333333 0  0.2666666666666667 0.1333333333333333 0  0.3 0.1333333333333333 0  0.3333333333333333 0.1333333333333333 0  0.3666666666666666 0.1333333333333333 0  0.4 0.1333333333333333 0  0.4333333333333333 0.1333333333333333 0  0.4666666666666667 0.1333333333333333 0  0.5 0.1333333333333333 0  0.5333333333333333 0.1333333333333333 0  0.5666666666666667 0.1333333333333333 0  0.6 0.1333333333333333 0  0.6333333333333333 0.1333333333333333 0  0.6666666666666666 0.1333333333333333 0  0.7 0.1333333333333333 0  0.7333333333333333 0.1333333333333333 0  0.7666666666666667 0.1333333333333333 0  0.8 0.1333333333333333 0  0.8333333333333334 0.1333333333333333 0  0.8666666666666667 0.1333333333333333 0  0.9 0.1333333333333333 0  0.9333333333333333 0.1333333333333333 0  0.9666666666666667 0.1333333333333333 0  1 0.1333333333333333 0  0 0.1666666666666667 0  0.03333333333333333 0.1666666666666667 0  0.06666666666666667 0.1666666666666667 0  0.1 0.1666666666666667 0  0.1333333333333333 0.1666666666666667 0  0.1666666666666667 0.1666666666666667 0  0.2 0.1666666666666667 0  0.2333333333333333 0.1666666666666667 0  0.2666666666666667 0.1666666666666667 0  0.3 0.1666666666666667 0  0.3333333333333333 0.1666666666666667 0  0.3666666666666666 0.1666666666666667 0  0.4 0.1666666666666667 0  0.4333333333333333 0.1666666666666667 0  0.4666666666666667 0.1666666666666667 0  0.5 0.1666666666666667 0  0.5333333333333333 0.1666666666666667 0  0.5666666666666667 0.1666666666666667 0  0.6 0.1666666666666667 0  0.6333333333333333 0.1666666666666667 0  0.6666666666666666 0.1666666666666667 0  0.7 0.1666666666666667 0  0.7333333333333333 0.1666666666666667 0  0.7666666666666667 0.1666666666666667 0  0.8 0.1666666666666667 0  0.8333333333333334 0.1666666666666667 0  0.8666666666666667 0.1666666666666667 0  0.9 0.1666666666666667 0  0.9333333333333333 0.1666666666666667 0  0.9666666666666667 0.1666666666666667 0  1 0.1666666666666667 0  0 0.2 0  0.03333333333333333 0.2 0  0.06666666666666667 0.2 0  0.1 0.2 0  0.1333333333333333 0.2 0  0.1666666666666667 0.2 0  0.2 0.2 0  0.2333333333333333 0.2 0  0.2666666666666667 0.2 0  0.3 0.2 0  0.3333333333333333 0.2 0  0.3666666666666666 0.2 0  0.4 0.2 0  0.4333333333333333 0.2 0  0.4666666666666667 0.2 0  0.5 0.2 0  0.5333333333333333 0.2 0  0.5666666666666667 0.2 0  0.6 0.2 0  0.6333333333333333 0.2 0  0.6666666666666666 0.2 0  0.7 0.2 0  0.7333333333333333 0.2 0  0.7666666666666667 0.2 0  0.8 0.2 0  0.8333333333333334 0.2 0  0.8666666666666667 0.2 0  0.9 0.2 0  0.9333333333333333 0.2 0  0.9666666666666667 0.2 0  1 0.2 0  0 0.2333333333333333 0  0.03333333333333333 0.2333333333333333 0  0.06666666666666667 0.2333333333333333 0  0.1 0.2333333333333333 0  0.1333333333333333 0.2333333333333333 0  0.1666666666666667 0.2333333333333333 0  0.2 0.2333333333333333 0  0.2333333333333333 0.2333333333333333 0  0.2666666666666667 0.2333333333333333 0  0.3 0.2333333333333333 0  0.3333333333333333 0.2333333333333333 0  0.3666666666666666 0.2333333333333333 0  0.4 0.2333333333333333 0  0.4333333333333333 0.2333333333333333 0  0.4666666666666667 0.2333333333333333 0  0.5 0.2333333333333333 0  0.5333333333333333 0.2333333333333333 0  0.5666666666666667 0.2333333333333333 0  0.6 0.2333333333333333 0  0.6333333333333333 0.2333333333333333 0  0.6666666666666666 0.2333333333333333 0  0.7 0.2333333333333333 0  0.7333333333333333 0.2333333333333333 0  0.7666666666666667 0.2333333333333333 0  0.8 0.2333333333333333 0  0.8333333333333334 0.2333333333333333 0  0.8666666666666667 0.2333333333333333 0  0.9 0.2333333333333333 0  0.9333333333333333 0.2333333333333333 0  0.9666666666666667 0.2333333333333333 0  1 0.2333333333333333 0  0 0.2666666666666667 0  0.03333333333333333 0.2666666666666667 0  0.06666666666666667 0.2666666666666667 0  0.1 0.2666666666666667 0  0.1333333333333333 0.2666666666666667 0  0.1666666666666667 0.2666666666666667 0  0.2 0.2666666666666667 0  0.2333333333333333 0.2666666666666667 0  0.2666666666666667 0.2666666666666667 0  0.3 0.2666666666666667 0  0.3333333333333333 0.2666666666666667 0  0.3666666666666666 0.2666666666666667 0  0.4 0.2666666666666667 0  0.4333333333333333 0.2666666666666667 0  0.4666666666666667 0.2666666666666667 0  0.5 0.2666666666666667 0  0.5333333333333333 0.2666666666666667 0  0.5666666666666667 0.2666666666666667 0  0.6 0.2666666666666667 0  0.6333333333333333 0.2666666666666667 0  0.6666666666666666 0.2666666666666667 0  0.7 0.2666666666666667 0  0.7333333333333333 0.2666666666666667 0  0.7666666666666667 0.2666666666666667 0  0.8 0.2666666666666667 0  0.8333333333333334 0.2666666666666667 0  0.8666666666666667 0.2666666666666667 0  0.9 0.2666666666666667 0  0.9333333333333333 0.2666666666666667 0  0.9666666666666667 0.2666666666666667 0  1 0.2666666666666667 0  0 0.3 0  0.03333333333333333 0.3 0  0.06666666666666667 0.3 0  0.1 0.3 0  0.1333333333333333 0.3 0  0.1666666666666667 0.3 0  0.2 0.3 0  0.2333333333333333 0.3 0  0.2666666666666667 0.3 0  0.3 0.3 0  0.3333333333333333 0.3 0  0.3666666666666666 0.3 0  0.4 0.3 0  0.4333333333333333 0.3 0  0.4666666666666667 0.3 0  0.5 0.3 0  0.5333333333333333 0.3 0  0.5666666666666667 0.3 0  0.6 0.3 0  0.6333333333333333 0.3 0  0.6666666666666666 0.3 0  0.7 0.3 0  0.7333333333333333 0.3 0  0.7666666666666667 0.3 0  0.8 0.3 0  0.8333333333333334 0.3 0  0.8666666666666667 0.3 0  0.9 0.3 0  0.9333333333333333 0.3 0  0.9666666666666667 0.3 0  1 0.3 0  0 0.3333333333333333 0  0.03333333333333333 0.3333333333333333 0  0.06666666666666667 0.3333333333333333 0  0.1 0.3333333333333333 0  0.1333333333333333 0.3333333333333333 0  0.1666666666666667 0.3333333333333333 0  0.2 0.3333333333333333 0  0.2333333333333333 0.3333333333333333 0  0.2666666666666667 0.3333333333333333 0  0.3 0.3333333333333333 0  0.3333333333333333 0.3333333333333333 0  0.3666666666666666 0.3333333333333333 0  0.4 0.3333333333333333 0  0.4333333333333333 0.3333333333333333 0  0.4666666666666667 0.3333333333333333 0  0.5 0.3333333333333333 0  0.5333333333333333 0.33333333333333
[...]
<PointData  Scalars="f_18-1"> 
<DataArray  type="Float64"  Name="f_18-1"  format="ascii">-1.9944587205014531e-06  -1.7214940365028694e-06  1.0874441064514105e-07  7.3663005399044013e-06  2.7769408905680991e-05  7.4556931786984236e-05  1.6735032307584635e-04  3.3103562863467576e-04  5.9171993631719423e-04  9.6978604152367506e-04  1.4715532114849457e-03  2.0823274175076896e-03  2.7638347131821108e-03  3.4577986026701813e-03  4.0952171265519841e-03  4.6088014949037257e-03  4.9450564383327978e-03  5.0729280493761386e-03  4.9873743268120229e-03  4.7078409118174736e-03  4.2728243596995711e-03  3.7322539568999846e-03  3.1394269687471444e-03  2.5439194462002074e-03  1.9864532893354293e-03  1.4962298275213619e-03  1.0907851053207317e-03  7.7802734721728762e-04  5.5988963011724207e-04  4.3731401250750611e-04  4.1853673341841146e-04  -1.7466049907982735e-06  -6.4082306928638121e-07  3.8015933636707035e-06  1.7295679681518607e-05  5.0684335365644595e-05  1.2173336734906761e-04  2.5568665441134112e-04  4.8318255876344965e-04  8.3459457400191102e-04  1.3311923832527177e-03  1.9753153122852867e-03  2.7430533647777337e-03  3.5827853840727990e-03  4.4211001760392334e-03  5.1749160025550481e-03  5.7663716641542248e-03  6.1363322623877127e-03  6.2532634665796423e-03  6.1160737743221373e-03  5.7513486457526812e-03  5.2065685720420786e-03  4.5412950084640670e-03  3.8181517970656020e-03  3.0950245075224473e-03  2.4194400192183501e-03  1.8256371561776469e-03  1.3343934057905144e-03  9.5523405187623162e-04  6.9024277333393951e-04  5.3825952817244417e-04  4.9705973017333586e-04  1.0243052274219623e-07  3.9023163876561576e-06  1.7291898554557018e-05  5.1973328665135023e-05  1.2901877376398312e-04  2.8099729448961320e-04  5.5139498960879310e-04  9.8920375182590418e-04  1.6378443569940813e-03  2.5201702413741476e-03  3.6240874625519800e-03  4.8945795190128497e-03  6.2364361529195951e-03  7.5281489147874031e-03  8.6431713016528987e-03  9.4722337699657110e-03  9.9406974693694774e-03  1.0017435520707194e-02  9.7148693498009236e-03  9.0821115091832966e-03  8.1940915057880752e-03  7.1393380531617418e-03  6.0083930488975604e-03  4.8841505312522803e-03  3.8349385099544996e-03  2.9108262842279381e-03  2.1432898127993817e-03  1.5479051117210727e-03  1.1291836011444356e-03  8.8611688006506688e-04  8.1660934618871489e-04  7.8780492316075159e-06  1.8323065067465221e-05  5.3607285760972912e-05  1.3799904278596176e-04  3.1359692685526026e-04  6.4237428060218843e-04  1.2023714459433851e-03  2.0748034901074265e-03  3.3220458584734777e-03  4.9615059797493664e-03  6.9446486385424944e-03  9.1507716017771006e-03  1.1400382268739098e-02  1.3485355326941499e-02  1.5206570166786630e-02  1.6407692978649708e-02  1.6996628922754140e-02  1.6951733178535530e-02  1.6315055730771591e-02  1.5177623975941723e-02  1.3661799547168216e-02  1.1904204104090217e-02  1.0040976134296531e-02  8.1960240370864152e-03  6.4725852749343846e-03  4.9484359539763963e-03  3.6750666405993004e-03  2.6807566294871584e-03  1.9767345551254525e-03  1.5647762667574485e-03  1.4441017430281769e-03  3.0850402843202641e-05  5.5705256631754092e-05  1.3802329728856877e-04  3.2522770938668143e-04  6.9716102425901815e-04  1.3662702173621193e-03  2.4660627238749957e-03  4.1235267061569920e-03  6.4182520487795032e-03  9.3400580966825318e-03  1.2762348262560846e-02  1.6445265662770110e-02  2.0071438691079333e-02  2.3303781801214257e-02  2.5846725156164711e-02  2.7492897232811796e-02  2.8145061061102102e-02  2.7813242640274589e-02  2.6594595987905447e-02  2.4646034187052669e-02  2.2157591284303422e-02  1.9330474044981460e-02  1.6360379154075871e-02  1.3425081909322708e-02  1.0675373834582922e-02  8.2292768901157769e-03  6.1701649340662884e-03  4.5493676556668319e-03  3.3929148060504225e-03  2.7107208603607148e-03  2.5054616580053092e-03  8.6329052251830866e-05  1.3944016263940995e-04  3.1341435130552176e-04  6.9473617896681798e-04  1.4250836543032647e-03  2.6952917864307003e-03  4.7176770927375572e-03  7.6725473818629103e-03  1.1638686469698113e-02  1.6532038330350874e-02  2.2080906743446389e-02  2.7854001421229780e-02  3.3335543861544865e-02  3.8022680016916749e-02  4.1514263919448832e-02  4.3567075711749191e-02  4.4110064464776985e-02  4.3222412405970786e-02  4.1091196378226523e-02  3.7965924134183641e-02  3.4121556309407788e-02  2.9833619247829277e-02  2.5363182861794578e-02  2.0947455682606191e-02  1.6792713612831200e-02  1.3068528927521056e-02  9.9042525866422666e-03  7.3894098019182154e-03  5.5787978378838551e-03  4.5011436190035481e-03  4.1683267355824864e-03  2.0270448404969673e-04  3.0649198173273871e-04  6.4416091465874595e-04  1.3628554298907882e-03  2.6971014606788435e-03  4.9479684193491826e-03  8.4256122451096659e-03  1.3354821454029645e-02  1.9768120459041777e-02  2.7430394621414146e-02  3.5834857709481874e-02  4.4280209719894228e-02  5.2002738621071014e-02  5.8318514642194876e-02  6.2735223501267368e-02  6.5009506430486988e-02  6.5144015282174964e-02  6.3336152536778323e-02  5.9903861735806190e-02  5.5215853701067782e-02  4.9643315473767859e-02  4.3535654520714354e-02  3.7213058054813349e-02  3.0966188046849499e-02  2.5055857553581671e-02  1.9709831301144693e-02  1.5117698111205542e-02  1.1426763394704928e-02  8.7416014047894362e-03  7.1277513788836492e-03  6.6174488915543891e-03  4.2078488729836749e-04  6.0817143870956121e-04  1.2149734958500978e-03  2.4748093451813658e-03  4.7492650518461401e-03  8.4778658369217223e-03  1.4071488113846080e-02  2.1760381034090438e-02  3.1448024412034203e-02  4.2641871922786477e-02  5.4505262540176319e-02  6.6013202806045279e-02  7.6147307078701695e-02  8.4066730869507056e-02  8.9223822214862664e-02  9.1414939542914506e-02  9.0761436645742349e-02  8.7627145883184154e-02  8.2503139078466001e-02  7.5903641922798123e-02  6.8302634972811208e-02  6.0113646267649465e-02  5.1697356479137015e-02  4.3378594887991312e-02  3.5459731302698944e-02  2.8224706986307097e-02  2.1933896621684382e-02  1.6813627806577372e-02  1.3045150915821422e-02  1.0756434821746189e-02  1.0017597068835375e-02  7.9115585539467478e-04  1.1057426768688826e-03  2.1206638633880920e-03  4.1820071286704950e-03  7.8081107498741706e-03  1.3589393996707326e-02  2.2008808580887794e-02  3.3218800206600292e-02  4.6869053400615965e-02  6.2088418234161259e-02  7.7648958543199503e-02  9.2226726893366293e-02  1.0463110647017784e-01  1.1394347349693637e-01  1.1959520942515879e-01  1.2142023735130067e-01  1.1965769779384726e-01  1.1486193370619044e-01  1.0773762147432855e-01  9.8977926216921960e-02  8.9170941770782719e-02  7.8783159484520277e-02  6.8190309732550886e-02  5.7721750285434234e-02  4.7696532766873738e-02  3.8441535005363084e-02  3.0290265896072584e-02  2.3565919237160945e-02  1.8554973450683940e-02  1.5478467854916198e-02  1.4467398286178821e-02  1.3655833465808617e-03  1.8588433182966878e-03  3.4448102979318866e-03  6.6018266755788462e-03  1.2019480700643641e-02  2.0421660050255641e-02  3.2288492023894839e-02  4.7556763265422054e-02  6.5457890796355070e-02  8.4631988909712227e-02  1.0348652080060618e-01  1.2057174240042885e-01  1.3475113505362424e-01  1.4517357565568553e-01  1.5124179453802389e-01  1.5270908555096904e-01  1.4981513960043943e-01  1.4326818484501616e-01  1.3402456741675359e-01  1.2301437542886193e-01  1.1097514901029258e-01  9.8428865262993576e-02  8.5745009480058879e-02  7.3225250116153356e-02  6.1173124542490000e-02  4.9934890128178221e-02  3.9908567818271484e-02  3.1523173577117571e-02  2.5194170304575363e-02  2.1265794378378378e-02  1.9955026622849391e-02  2.1822313107934962e-03  2.9070899273011520e-03  5.2298366975121139e-03  9.7676118386912994e-03  1.7370530801098773e-02  2.8838635079589277e-02  4.4521526074546604e-02  6.3948238419759967e-02  8.5741216923235150e-02  1.0798825254477043e-01  1.2890097688400565e-01  1.4727284485484335e-01  1.6241120321199937e-01  1.7373882331441654e-01  1.8055579758560569e-01  1.8225029905473683e-01  1.7876255897285215e-01  1.7080987685467358e-01  1.5962764954892861e-01  1.4648294475827581e-01  1.3234401154656664e-01  1.1782158886757901e-01  1.0327427554135132e-01  8.8951181875010304e-02  7.5108654347828999e-02  6.2083365568929433e-02  5.0319198783099622e-02  4.0347869293951365e-02  3.2726665394288874e-02  2.7945833345278059e-02  2.6330411763272738e-02  3.2475014082354540e-03  4.2489079353183693e-03  7.4467349053957957e-03  1.3585609970429511e-02  2.3636496414098505e-02  3.8381069234356330e-02  5.7871596558510922e-02  8.1010030026819335e-02  1.0563416863202957e-01  1.2930815413984070e-01  1.5036980674641462e-01  1.6835795351867575e-01  1.8347260416743580e-01  1.9562394063221333e-01  2.0391160452283741e-01  2.0698861755731393e-01  2.0404448758821597e-01  1.9552584585086930e-01  1.8293006468732231e-01  1.6799023014071524e-01  1.5203370482156905e-01  1.3582949641436556e-01  1.1974385328340244e-01  1.0396320733132729e-01  8.8673481256351688e-02  7.4174596715949018e-02  6.0932362221783123e-02  4.9566890366536463e-02  4.0776214004971834e-02  3.5206768402507020e-02  3.3305619619475445e-02  4.5203723947716727e-03  5.8248551770480553e-03  9.9761729096116743e-03  1.7818093441304705e-02  3.0381301923177409e-02  4.8320050252065122e-02  7.1228708327786633e-02  9.7204832501137692e-02  1.2321701273333208e-01  1.4645509823484093e-01  1.6576474243569986e-01  1.8184839836802924e-01  1.9608068302822845e-01  2.0897948946136449e-01  2.1940779197485483e-01  2.2504895545745957e-01  2.2394619061240983e-01  2.1593375264381107e-01  2.0266976593792721e-01  1.8644401253756357e-01  1.6907023624063808e-01  1.5155729405408166e-01  1.3431252261079202e-01  1.1746452200567749e-01  1.0111854916176022e-01  8.5518932113784377e-02  7.1130702183852937e-02  5.8641450126313402e-02  4.8876278594188027e-02  4.2633682205506049e-02  4.0485663477934683e-02  5.9063280453037926e-03  7.5133338090362396e-03  1.2611022818344669e-02  2.2103852682215219e-02  3.7018093683661824e-02  5.7796684811881063e-02  8.3491401533774351e-02  1.1135216843686893e-01  1.3754777048977740e-01  1.5910861229027481e-01  1.7563121072004587e-01  1.8908448224147595e-01  2.0198377427546263e-01  2.1542338123195223e-01  2.2807792071090852e-01  2.3671153238042489e-01  2.3813821071038047e-01  2.3138003513596644e-01  2.1810525277352341e-01  2.0113374175665671e-01  1.8280257332973307e-01  1.6439889465345781e-01  1.4639475422270035e-01  1.2887263212202668e-01  1.1185946891044939e-01  9.5536973906963613e-02  8.0353518216473019e-02  6.7042632540135233e-02  5.6534883337988596e-02  4.9764667478165069e-02  4.7420926665193423e-02  7.2659747335067490e-03  9.1435194829329776e-03  1.5083487346280153e-02  2.6012519147361250e-02  4.2906324184899175e-02  6.5975418475731601e-02  9.3776856174986004e-02  1.2285874541909017e-01  1.4880031235506000e-01  1.6862042120520279e-01  1.8260632936627866e-01  1.9372827451876976e-01  2.0534311847813244e-01  2.1896967067808951e-01  2.3317736137685816e-01  2.4409264562257563e-01  2.4760521307586181e-01  2.4205076257540947e-01  2.2902626134227916e-01  2.1172543255313525e-01  1.9288908431751167e-01  1.7402555042176784e-01  1.5565867846872128e-01  1.3783235107598008e-01  1.2050629683562097e-01  1.0380438815861059e-01  8.8152130885337104e-02  7.4311796505379085e-02  6.3295547498028307e-02  5.6150241295172106e-02  5.3665610754967917e-02  8.4385624422028127e-03  1.0524534753492413e-02  1.7111522914892270e-02  2.9117750265046774e-02  4.7451537428230425e-02  7.2142895686412981e-02  1.0143574182346630e-01  1.3148754790701889e-01  1.5757265017705110e-01  1.7670034778199192e-01  1.8948837093772053e-01  1.9938570855846666e-01  2.1015351059645687e-01  2.2352310783476889e-01  2.3804211798584199e-01  2.4959597274128681e-01  2.5372835874570848e-01  2.4852598072715537e-01  2.3556501400256977e-01  2.1817709525265738e-01  1.9924423627233895e-01  1.8034059936503496e-01  1.6198707960826214e-01  1.4418755894223376e-01  1.2685058378377129e-01  1.1005640936870456e-01  9.4211025637324877e-02  8.0095059670336449e-02  6.8780624476898117e-02  6.1401323597319417e-02  5.8827229482885574e-02  9.2748150244486242e-03  1.1483795984298450e-02  1.8453048774197015e-02  3.1072007730171314e-02  5.0189414114666285e-02  7.5753115369537688e-02  1.0594565213136532e-01  1.3692109298466218e-01  1.6395842538521851e-01  1.8397707394087381e-01  1.9741744035638842e-01  2.0756984359802230e-01  2.1810935266675144e-01  2.3075198931821522e-01  2.4411942959941926e-01  2.5430895265409037e-01  2.5720361077134768e-01  2.5119339393217149e-01  2.3793277126777604e-01  2.2062467974239719e-01  2.0197361178034695e-01  1.8342496720447463e-01  1.6542534761831715e-01  1.4793431210926949e-01  1.3082861378775401e-01  1.1416528042629313e-01  9.8341385569609294e-02  8.4152200851240755e-02  7.2712535737181894e-02  6.5218320396887200e-02  6.2598586509057322e-02  9.6693873681335720e-03  1.1903599132373065e-02  1.8953971694247330e-02  3.1668404374023060e-02  5.0853196120582755e-02  7.6472560292660627e-02  1.0687577068572125e-01  1.3856033742452376e-01  1.6711300546151453e-01  1.8934389304809152e-01  2.0508041044696121e-01  2.1684347747925842e-01  2.2773454288950132e-01  2.3924438497784106e-01  2.5020075775130690e-01  2.5737708441753632e-01  2.5760750383168934e-01  2.4999851285017952e-01  2.3629326289359623e-01  2.1931244166252675e-01  2.0132114575006663e-01  1.8348597331957192e-01  1.6612955016298833e-01  1.4917079001484851e-01  1.3247718001312353e-01  1.1610567078458951e-01  1.0045887185512493e-01  8.6347636013404047e-02  7.4916460904395202e-02  6.7401911285545332e-02  6.4771635113244283e-02  9.5828794625429925e-03  1.1745010135433741e-02  1.8577199970395752e-02  3.0876797582401447e-02  4.9420151577586162e-02  7.4251171921767695e-02  1.0402094564233062e-01  1.3577923789762988e-01  1.6565615207754786e-01  1.9046962137930146e-01  2.0926878869228183e-01  2.2340280070689630e-01  2.3500998477854290e-01  2.4519768125320310e-01  2.5314564509413978e-01  2.5666382955139061e-01  2.5387344811185591e-01  2.4469647612018150e-01  2.3084645043390550e-01  2.1458959155261215e-01  1.9763215129170009e-01  1.8081074647878465e-01  1.6431882734298583e-01  1.4805186241229315e-01  1.3189240598170940e-01  1.1591988374514822e-01  1.0055719614101313e-01  8.6633444736660264e-02  7.5312283516922554e-02  6.7851462460800011e-02  6.5238343238648064e-02  9.0469874246759518e-03  1.1052245790825024e-02  1.7404741315222075e-02  2.8843703308380396e-02  4.6118376602440010e-02  6.9373774620472978e-02  9.7596169008656086e-02  1.2843185811870675e-01  1.5865204182831733e-01  1.8526390336362566e-01  2.0668893616597428e-01  2.2307719336422269e-01  2.3546208561886098e-01  2.4449793304462838e-01  2.4978604225728093e-01  2.5025839007631090e-01  2.4525747415125809e-01  2.3532236196395157e-01  2.2198254160620895e-01  2.0691873671366903e-01  1.9131458221510117e-01  1.7572007333703102e-01  1.6023303583936699e-01  1.4475202585042773e-01  1.2919755634727992e-01  1.1369049964669879e-01  9.8686097369268685e-02  8.5033158871821127e-02  7.3903938939863439e-02  6.6558488936033805e-02  6.3985672222155079e-02  8.1524641668126972e-03  9.9374863021266299e-03  1.5613293241497029e-02  2.5854452549898776e-02  4.1378641947393151e-02  6.2425980073572002e-02  8.8289830456750165e-02  1.1715002154755942e-01  1.4638285752927394e-01  1.7330948836140309e-01  1.9603278071909355e-01  2.1382154050695745e-01  2.2678057669408799e-01  2.3515167119398406e-01  2.3887898358707510e-01  2.3777074282363353e-01  2.3200980612600641e-01  2.2243728156625894e-01  2.1031484512496573e-01  1.9683345332248162e-01  1.8278495097292188e-01  1.6852311122456531e-01  1.5409877652899198e-01  1.3944016749995630e-01  1.2452368160890856e-01  1.0952501567615469e-01  9.4939038638900894e-02  8.1632122664148654e-02  7.0772110733404642e-02  6.3601040674423445e-02  6.1090527889968986e-02  7.0252879671849665e-03  8.5524997647252379e-03  1.3432411074097601e-02  2.2269652941501419e-02  3.5742318554693883e-02  5.4168510751594123e-02  7.7103908287008818e-02  1.0317406217616452e-01  1.3027125714956025e-01  1.5607011320797279e-01  1.7862749280466769e-01  1.9675162244342537e-01  2.0996843885811955e-01  2.1822067571560064e-01  2.2162013758528565e-01  2.2044380255691359e-01  2.1526511444657825e-01  2.0696758466448789e-01  1.9654679222288857e-01  1.8484697667942970e-01  1.7241084016300096e-01  1.5948355098272324e-01  1.4611108708035220e-01  1.3227087109811284e-01  1.1800635146825449e-01  1.0355511564106279e-01  8.9453118413778107e-02  7.6576970487513676e-02  6.6072890421637470e-02  5.9141672514830969e-02  5.6717412113360878e-02  5.7993396014912628e-03  7.0567145815102691e-03  1.1098906725922855e-02  1.8456793707016483e-02  2.9759306280193139e-02  4.5381613362094841e-02  6.5100034762830550e-02  8.7916643341238165e-02  1.1216574435110521e-01  1.3587584485198423e-01  1.5722280163341548e-01  1.7486773705185946e-01  1.8806128903036096e-01  1.9655600457530523e-01  2.0047061948692446e-01  2.0020797414765754e-01  1.9640597967342291e-01  1.8984459334560633e-01  1.8129427676463589e-01  1.7137330155654676e-01  1.6048064032622658e-01  1.4881349365947624e-01  1.3643994413778104e-01  1.2339741897977623e-01  1.0980114090972559e-01  9.5951604854548025e-02  8.2421189718621238e-02  7.0083611587494501e-02  6.0041500628016491e-02  5.3428012392067716e-02  5.1117831256998196e-02  4.5932470498420688e-03  5.5905106029878714e-03  8.8196205097004626e-03  1.4735633003775710e-02  2.3908162552613851e-02  3.6745634515394809e-02  5.3205343383401625e-02  7.2614223451035784e-02  9.3701503775775755e-02  1.1484503723229794e-01  1.3442228862288386e-01  1.5111567223523895e-01  1.6407313635542781e-01  1.7292056203327974e-01  1.7768846999372337e-01  1.7871340015380602e-01  1.7653254689293954e-01  1.7176728519670351e-01  1.6500655520490667e-01  1.5672041125925618e-01  1.4722637416562864e-01  1.3670770520106884e-01  1.2526840376905349e-01  1.1300988979219670e-01  1.0011871111907494e-01  8.6953826490798539e-02  7.4113521118407938e-02  6.2450151224757569e-02  5.2997108023492917e-02  4.6791864617032650e-02  4.4627435667905266e-02  3.4959931144844000e-03  4.2588523264449202e-03  6.7491917040735103e-03  1.1346560009727299e-02  1.8552097636746274e-02  2.8781563099681277e-02  4.2130466012954670e-02  5.8201068843805749e-02  7.6078905173907946e-02  9.4483867984980513e-02  1.1203388372174132e-01  1.2751107906331410e-01  1.4004040503303242e-01  1.4915175526583635e-01  1.5474908346414390e-01  1.5702681704688981e-01  1.5636442738620127e-01  1.5321887359602687e-01  1.4803236419678537e-01  1.4117146777994641e-01  1.3290541166987171e-01  1.2342065995286305e-01  1.1286289944091150e-01  1.0139704466424249e-01  8.9276317630791122e-02  7.6908794730339625e-02  6.4903207091854667e-02  5.4068613500308421e-02  4.5342773273216466e-02  3.9641233114318337e-02  3.7655424597401933e-02  2.5622777600329272e-03  3.1262201574247441e-03  4.9835797603825262e-03  8.4418975391005058e-03  1.3928087938842943e-02  2.1840518864006283e-02  3.2367308448554337e-02  4.5330255940858433e-02  6.0124788028678461e-02  7.5793714459638839e-02  9.1210040686890717e-02  1.0529480451346523e-01  1.1719217767111649e-01  1.2635936682219695e-01  1.3257143855460360e-01  1.3586634913261991e-01  1.3646045030521398e-01  1.3465981811370309e-01  1.3078607085939209e-01  1.2512831677172620e-01  1.1792523677047953e-01  1.0937480781417261e-01  9.9665566361582983e-02  8.9022007114971824e-02  7.7755566928312161e-02  6.6310015559395558e-02  5.5286122699785785e-02  4.5427723328137985e-02  3.7554485552494687e-02  3.2440506905862559e-02  3.0661852876665979e-02  1.8159347845120195e-03  2.2207645289396621e-03  3.5661719642322521e-03  6.0949302660828486e-03  1.0159721213817322e-02  1.6122719216657262e-02  2.4221644966714542e-02  3.4437858245463270e-02  4.6418366756616564e-02  5.9492128310213742e-02  7.2781445804168912e-02  8.5366221999895117e-02  9.6440846040870720e-02  1.0541776838260358e-01  1.1196242312982599e-01  1.1597046754125119e-01  1.1751075786032383e-01  1.1675804948110534e-01  1.1393386162808837e-01  1.0926650033264385e-01  1.0297416882577151e-01  9.5269710818616987e-02  8.6382177031371132e-02  7.658842111