<?xml version="1.0"?>
<VTKFile type="UnstructuredGrid"  version="0.1"  >
<UnstructuredGrid>
<Piece  NumberOfPoints="441" NumberOfCells="800">
<Points>
<DataArray  type="Float64"  NumberOfComponents="3"  format="ascii">-0.5 -0.5 0  -0.45 -0.5 0  -0.4 -0.5 0  -0.35 -0.5 0  -0.3 -0.5 0  -0.25 -0.5 0  -0.2 -0.5 0  -0.15 -0.5 0  -0.09999999999999998 -0.5 0  -0.04999999999999999 -0.5 0  0 -0.5 0  0.05000000000000004 -0.5 0  0.09999999999999998 -0.5 0  0.15 -0.5 0  0.2 -0.5 0  0.25 -0.5 0  0.3 -0.5 0  0.35 -0.5 0  0.4 -0.5 0  0.45 -0.5 0  0.5 -0.5 0  -0.5 -0.45 0  -0.45 -0.45 0  -0.4 -0.45 0  -0.35 -0.45 0  -0.3 -0.45 0  -0.25 -0.45 0  -0.2 -0.45 0  -0.15 -0.45 0  -0.09999999999999998 -0.45 0  -0.04999999999999999 -0.45 0  0 -0.45 0  0.05000000000000004 -0.45 0  0.09999999999999998 -0.45 0  0.15 -0.45 0  0.2 -0.45 0  0.25 -0.45 0  0.3 -0.45 0  0.35 -0.45 0  0.4 -0.45 0  0.45 -0.45 0  0.5 -0.45 0  -0.5 -0.4 0  -0.45 -0.4 0  -0.4 -0.4 0  -0.35 -0.4 0  -0.3 -0.4 0  -0.25 -0.4 0  -0.2 -0.4 0  -0.15 -0.4 0  -0.09999999999999998 -0.4 0  -0.04999999999999999 -0.4 0  0 -0.4 0  0.05000000000000004 -0.4 0  0.09999999999999998 -0.4 0  0.15 -0.4 0  0.2 -0.4 0  0.25 -0.4 0  0.3 -0.4 0  0.35 -0.4 0  0.4 -0.4 0  0.45 -0.4 0  0.5 -0.4 0  -0.5 -0.35 0  -0.45 -0.35 0  -0.4 -0.35 0  -0.35 -0.35 0  -0.3 -0.35 0  -0.25 -0.35 0  -0.2 -0.35 0  -0.15 -0.35 0  -0.09999999999999998 -0.35 0  -0.04999999999999999 -0.35 0  0 -0.35 0  0.05000000000000004 -0.35 0  0.09999999999999998 -0.35 0  0.15 -0.35 0  0.2 -0.35 0  0.25 -0.35 0  0.3 -0.35 0  0.35 -0.35 0  0.4 -0.35 0  0.45 -0.35 0  0.5 -0.35 0  -0.5 -0.3 0  -0.45 -0.3 0  -0.4 -0.3 0  -0.35 -0.3 0  -0.3 -0.3 0  -0.25 -0.3 0  -0.2 -0.3 0  -0.15 -0.3 0  -0.09999999999999998 -0.3 0  -0.04999999999999999 -0.3 0  0 -0.3 0  0.05000000000000004 -0.3 0  0.09999999999999998 -0.3 0  0.15 -0.3 0  0.2 -0.3 0  0.25 -0.3 0  0.3 -0.3 0  0.35 -0.3 0  0.4 -0.3 0  0.45 -0.3 0  0.5 -0.3 0  -0.5 -0.25 0  -0.45 -0.25 0  -0.4 -0.25 0  -0.35 -0.25 0  -0.3 -0.25 0  -0.25 -0.25 0  -0.2 -0.25 0  -0.15 -0.25 0  -0.09999999999999998 -0.25 0  -0.04999999999999999 -0.25 0  0 -0.25 0  0.05000000000000004 -0.25 0  0.09999999999999998 -0.25 0  0.15 -0.25 0  0.2 -0.25 0  0.25 -0.25 0  0.3 -0.25 0  0.35 -0.25 0  0.4 -0.25 0  0.45 -0.25 0  0.5 -0.25 0  -0.5 -0.2 0  -0.45 -0.2 0  -0.4 -0.2 0  -0.35 -0.2 0  -0.3 -0.2 0  -0.25 -0.2 0  -0.2 -0.2 0  -0.15 -0.2 0  -0.09999999999999998 -0.2 0  -0.04999999999999999 -0.2 0  0 -0.2 0  0.05000000000000004 -0.2 0  0.09999999999999998 -0.2 0  0.15 -0.2 0  0.2 -0.2 0  0.25 -0.2 0  0.3 -0.2 0  0.35 -0.2 0  0.4 -0.2 0  0.45 -0.2 0  0.5 -0.2 0  -0.5 -0.15 0  -0.45 -0.15 0  -0.4 -0.15 0  -0.35 -0.15 0  -0.3 -0.15 0  -0.25 -0.15 0  -0.2 -0.15 0  -0.15 -0.15 0  -0.09999999999999998 -0.15 0  -0.04999999999999999 -0.15 0  0 -0.15 0  0.05000000000000004 -0.15 0  0.09999999999999998 -0.15 0  0.15 -0.15 0  0.2 -0.15 0  0.25 -0.15 0  0.3 -0.15 0  0.35 -0.15 0  0.4 -0.15 0  0.45 -0.15 0  0.5 -0.15 0  -0.5 -0.09999999999999998 0  -0.45 -0.09999999999999998 0  -0.4 -0.09999999999999998 0  -0.35 -0.09999999999999998 0  -0.3 -0.09999999999999998 0  -0.25 -0.09999999999999998 0  -0.2 -0.09999999999999998 0  -0.15 -0.09999999999999998 0  -0.09999999999999998 -0.09999999999999998 0  -0.04999999999999999 -0.09999999999999998 0  0 -0.09999999999999998 0  0.05000000000000004 -0.09999999999999998 0  0.09999999999999998 -0.09999999999999998 0  0.15 -0.09999999999999998 0  0.2 -0.09999999999999998 0  0.25 -0.09999999999999998 0  0.3 -0.09999999999999998 0  0.35 -0.09999999999999998 0  0.4 -0.09999999999999998 0  0.45 -0.09999999999999998 0  0.5 -0.09999999999999998 0  -0.5 -0.04999999999999999 0  -0.45 -0.04999999999999999 0  -0.4 -0.04999999999999999 0  -0.35 -0.04999999999999999 0  -0.3 -0.04999999999999999 0  -0.25 -0.04999999999999999 0  -0.2 -0.04999999999999999 0  -0.15 -0.04999999999999999 0  -0.09999999999999998 -0.04999999999999999 0  -0.04999999999999999 -0.04999999999999999 0  0 -0.04999999999999999 0  0.05000000000000004 -0.04999999999999999 0  0.09999999999999998 -0.04999999999999999 0  0.15 -0.04999999999999999 0  0.2 -0.04999999999999999 0  0.25 -0.04999999999999999 0  0.3 -0.04999999999999999 0  0.35 -0.04999999999999999 0  0.4 -0.04999999999999999 0  0.45 -0.04999999999999999 0  0.5 -0.04999999999999999 0  -0.5 0 0  -0.45 0 0  -0.4 0 0  -0.35 0 0  -0.3 0 0  -0.25 0 0  -0.2 0 0  -0.15 0 0  -0.09999999999999998 0 0  -0.04999999999999999 0 0  0 0 0  0.05000000000000004 0 0  0.09999999999999998 0 0  0.15 0 0  0.2 0 0  0.25 0 0  0.3 0 0  0.35 0 0  0.4 0 0  0.45 0 0  0.5 0 0  -0.5 0.05000000000000004 0  -0.45 0.05000000000000004 0  -0.4 0.05000000000000004 0  -0.35 0.05000000000000004 0  -0.3 0.05000000000000004 0  -0.25 0.05000000000000004 0  -0.2 0.05000000000000004 0  -0.15 0.05000000000000004 0  -0.09999999999999998 0.05000000000000004 0  -0.04999999999999999 0.05000000000000004 0  0 0.05000000000000004 0  0.05000000000000004 0.05000000000000004 0  0.09999999999999998 0.05000000000000004 0  0.15 0.05000000000000004 0  0.2 0.05000000000000004 0  0.25 0.05000000000000004 0  0.3 0.05000000000000004 0  0.35 0.05000000000000004 0  0.4 0.05000000000000004 0  0.45 0.05000000000000004 0  0.5 0.05000000000000004 0  -0.5 0.09999999999999998 0  -0.45 0.09999999999999998 0  -0.4 0.09999999999999998 0  -0.35 0.09999999999999998 0  -0.3 0.09999999999999998 0  -0.25 0.09999999999999998 0  -0.2 0.09999999999999998 0  -0.15 0.09999999999999998 0  -0.09999999999999998 0.09999999999999998 0  -0.04999999999999999 0.09999999999999998 0  0 0.09999999999999998 0  0.05000000000000004 0.09999999999999998 0  0.09999999999999998 0.09999999999999998 0  0.15 0.09999999999999998 0  0.2 0.09999999999999998 0  0.25 0.09999999999999998 0  0.3 0.09999999999999998 0  0.35 0.09999999999999998 0  0.4 0.09999999999999998 0  0.45 0.09999999999999998 0  0.5 0.09999999999999998 0  -0.5 0.15 0  -0.45 0.15 0  -0.4 0.15 0  -0.35 0.15 0  -0.3 0.15 0  -0.25 0.15 0  -0.2 0.15 0  -0.15 0.15 0  -0.09999999999999998 0.15 0  -0.04999999999999999 0.15 0  0 0.15 0  0.05000000000000004 0.15 0  0.09999999999999998 0.15 0  0.15 0.15 0  0.2 0.15 0  0.25 0.15 0  0.3 0.15 0  0.35 0.15 0  0.4 0.15 0  0.45 0.15 0  0.5 0.15 0  -0.5 0.2 0  -0.45 0.2 0  -0.4 0.2 0  -0.35 0.2 0  -0.3 0.2 0  -0.25 0.2 0  -0.2 0.2 0  -0.15 0.2 0  -0.09999999999999998 0.2 0  -0.04999999999999999 0.2 0  0 0.2 0  0.05000000000000004 0.2 0  0.09999999999999998 0.2 0  0.15 0.2 0  0.2 0.2 0  0.25 0.2 0  0.3 0.2 0  0.35 0.2 0  0.4 0.2 0  0.45 0.2 0  0.5 0.2 0  -0.5 0.25 0  -0.45 0.25 0  -0.4 0.25 0  -0.35 0.25 0  -0.3 0.25 0  -0.25 0.25 0  -0.2 0.25 0  -0.15 0.25 0  -0.09999999999999998 0.25 0  -0.04999999999999999 0.25 0  0 0.25 0  0.05000000000000004 0.25 0  0.09999999999999998 0.25 0  0.15 0.25 0  0.2 0.25 0  0.25 0.25 0  0.3 0.25 0  0.35 0.25 0  0.4 0.25 0  0.45 0.25 0  0.5 0.25 0  -0.5 0.3 0  -0.45 0.3 0  -0.4 0.3 0  -0.35 0.3 0  -0.3 0.3 0  -0.25 0.3 0  -0.2 0.3 0  -0.15 0.3 0  -0.09999999999999998 0.3 0  -0.04999999999999999 0.3 0  0 0.3 0  0.05000000000000004 0.3 0  0.09999999999999998 0.3 0  0.15 0.3 0  0.2 0.3 0  0.25 0.3 0  0.3 0.3 0  0.35 0.3 0  0.4 0.3 0  0.45 0.3 0  0.5 0.3 0  -0.5 0.35 0  -0.45 0.35 0  -0.4 0.35 0  -0.35 0.35 0  -0.3 0.35 0  -0.25 0.35 0  -0.2 0.35 0  -0.15 0.35 0  -0.09999999999999998 0.35 0  -0.04999999999999999 0.35 0  0 0.35 0  0.05000000000000004 0.35 0  0.09999999999999998 0.35 0  0.15 0.35 0  0.2 0.35 0  0.25 0.35 0  0.3 0.35 0  0.35 0.35 0  0.4 0.35 0  0.45 0.35 0  0.5 0.35 0  -0.5 0.4 0  -0.45 0.4 0  -0.4 0.4 0  -0.35 0.4 0  -0.3 0.4 0  -0.25 0.4 0  -0.2 0.4 0  -0.15 0.4 0  -0.09999999999999998 0.4 0  -0.04999999999999999 0.4 0  0 0.4 0  0.05000000000000004 0.4 0  0.09999999999999998 0.4 0  0.15 0.4 0  0.2 0.4 0  0.25 0.4 0  0.3 0.4 0  0.35 0.4 0  0.4 0.4 0  0.45 0.4 0  0.5 0.4 0  -0.5 0.45 0  -0.45 0.45 0  -0.4 0.45 0  -0.35 0.45 0  -0.3 0.45 0  -0.25 0.45 0  -0.2 0.45 0  -0.15 0.45 0  -0.09999999999999998 0.45 0  -0.04999999999999999 0.45 0  0 0.45 0  0.05000000000000004 0.45 0  0.09999999999999998 0.45 0  0.15 0.45 0  0.2 0.45 0  0.25 0.45 0  0.3 0.45 0  0.35 0.45 0  0.4 0.45 0  0.45 0.45 0  0.5 0.45 0  -0.5 0.5 0  -0.45 0.5 0  -0.4 0.5 0  -0.35 0.5 0  -0.3 0.5 0  -0.25 0.5 0  -0.2 0.5 0  -0.15 0.5 0  -0.09999999999999998 0.5 0  -0.04999999999999999 0.5 0  0 0.5 0  0.05000000000000004 0.5 0  0.09999999999999998 0.5 0  0.15 0.5 0  0.2 0.5 0  0.25 0.5 0  0.3 0.5 0  0.35 0.5 0  0.4 0.5 0  0.45 0.5 0  0.5 0.5 0  </DataArray>
</Points>
<Cells>
[...]
<PointData  Scalars="f_18-1"> 
<DataArray  type="Float64"  Name="f_18-1"  format="ascii">2.5911249643802413e-07  3.7215293457210962e-07  6.3747900417814617e-07  1.1255285018601546e-06  1.9189898292586991e-06  3.1093806061492692e-06  4.7822175023135808e-06  6.9964771607338973e-06  9.7628820401429768e-06  1.3026782622182069e-05  1.6661871717217479e-05  2.0479475981383541e-05  2.4254540799436488e-05  2.7764431565691567e-05  3.0831889875034503e-05  3.3360811801627859e-05  3.5354600931759609e-05  3.6912926876507249e-05  3.8216592390967634e-05  3.9547274634340652e-05  4.1531567853377323e-05  4.2739907746244660e-07  5.5884636621603629e-07  9.1658397954349144e-07  1.5722588082910427e-06  2.6242930195453221e-06  4.1828268685058596e-06  6.3489297294217378e-06  9.1888222359314553e-06  1.2707578618992440e-05  1.6829124812187110e-05  2.1389916760743540e-05  2.6151740340199323e-05  3.0834582593011861e-05  3.5164486841282441e-05  3.8925620458612871e-05  4.2002654633102773e-05  4.4400621260255820e-05  4.6234851214665565e-05  4.7690833118984241e-05  4.8951963639256850e-05  5.0029745720454000e-05  9.3973408325481022e-07  1.1821980736236509e-06  1.8473454198226824e-06  3.0519583781681532e-06  4.9534107933189472e-06  7.7245818142032515e-06  1.1518538523234107e-05  1.6426258658589581e-05  2.2435126489467220e-05  2.9399144493151142e-05  3.7032209917115551e-05  4.4932274741137551e-05  5.2636842723525791e-05  5.9700762233956171e-05  6.5778644334805528e-05  7.0689785115173544e-05  7.4445486039399276e-05  7.7227151710427381e-05  7.9315422109200385e-05  8.0979669530063347e-05  8.2338851197819325e-05  2.0877772070946557e-06  2.5620973389589627e-06  3.8719595817620274e-06  6.2213997798592950e-06  9.8822955471640189e-06  1.5148202340537845e-05  2.2270114068309653e-05  3.1381695232867183e-05  4.2428256621220734e-05  5.5118510357422870e-05  6.8918055520508147e-05  8.3096799257478904e-05  9.6829517714439926e-05  1.0933259684318812e-04  1.2000580271778753e-04  1.2854121106708991e-04  1.3496585145917033e-04  1.3960025318536816e-04  1.4293784282945189e-04  1.4547338623170951e-04  1.4752816196093478e-04  4.3936309265467033e-06  5.2933612429744172e-06  7.8052106902175128e-06  1.2279191644806472e-05  1.9181125744909414e-05  2.9007358274565453e-05  4.2169057848406440e-05  5.8860865986455494e-05  7.8939537718777583e-05  1.0184544600614271e-04  1.2659860068858338e-04  1.5188834017285010e-04  1.7625312769102685e-04  1.9831944031580532e-04  2.1704535335292450e-04  2.3190422224890294e-04  2.4295273568996473e-04  2.5075540446606976e-04  2.5617738099947314e-04  2.6009778921841175e-04  2.6312442552637791e-04  8.7085337159544394e-06  1.0341725209593622e-05  1.4954982405245835e-05  2.3128441519763658e-05  3.5636187794978585e-05  5.3294149750991543e-05  7.6758602514238926e-05  1.0630225710383070e-04  1.4161226905402737e-04  1.8166526730602908e-04  2.2473094321998050e-04  2.6853360815950534e-04  3.1056264665590494e-04  3.4847746182958855e-04  3.8051488651267971e-04  4.0579184832572387e-04  4.2441243738596429e-04  4.3733560223389840e-04  4.4602583542033622e-04  4.5197496298799095e-04  4.5622717493827591e-04  1.6308399629801199e-05  1.9143682420782589e-05  2.7243532839691003e-05  4.1534807821812297e-05  6.3259316494408642e-05  9.3713899125649994e-05  1.3391289501015171e-04  1.8421984339864089e-04  2.4402211509928445e-04  3.1153766831029938e-04  3.8383519134458223e-04  4.5711137237946001e-04  5.2720622535665132e-04  5.9026505748744154e-04  6.4339710509872115e-04  6.8515901850654609e-04  7.1571971366565204e-04  7.3663933577993292e-04  7.5030039928918046e-04  7.5913324290472286e-04  7.6484744616885200e-04  2.8956928343705831e-05  3.3670387441303339e-05  4.7278034424925296e-05  7.1207866306586469e-05  1.0738229654773057e-04  1.5779274211557016e-04  2.2395613192967192e-04  3.0633103832821643e-04  4.0381129083466734e-04  5.1343636602717334e-04  6.3044235586280791e-04  7.4871628946373192e-04  8.6161780574137115e-04  9.6302086267638528e-04  1.0483404025819394e-03  1.1152789790114088e-03  1.1640750555216778e-03  1.1971526291687071e-03  1.2182320888772145e-03  1.2311207689489709e-03  1.2385103953116475e-03  4.8890154124280769e-05  5.6403724579940476e-05  7.8303768137696081e-05  1.1671401560582452e-04  1.7450791313215947e-04  2.5464112712866095e-04  3.5931007672123662e-04  4.8905994351338311e-04  6.4202362521621444e-04  8.1350148692505583e-04  9.9606397783169771e-04  1.1802637112340289e-03  1.3558938251087625e-03  1.5135644600312984e-03  1.6462430932218789e-03  1.7503665598624814e-03  1.8262068144448804e-03  1.8773465241219407e-03  1.9093512497311814e-03  1.9279543549612448e-03  1.9372376979520634e-03  7.8671317560832224e-05  9.0169037159738608e-05  1.2397055373376703e-04  1.8312767173137549e-04  2.7179015807165846e-04  3.9420070462516647e-04  5.5344167770134947e-04  7.5012187901444464e-04  9.8127252152897825e-04  1.2397574522060493e-03  1.5144558710837904e-03  1.7913317093125433e-03  2.0552844640240411e-03  2.2924407551533025e-03  2.4923732044093028e-03  2.6496918002892546e-03  2.7645691649013765e-03  2.8420059411709765e-03  2.8899499935062397e-03  2.9166892777693545e-03  2.9281886179549159e-03  1.2087719861572959e-04  1.3778337762619105e-04  1.8786334467642016e-04  2.7535818425784457e-04  4.0606205805111090e-04  5.8586879108241650e-04  8.1897564984866880e-04  1.1060201621029835e-03  1.4425350674130259e-03  1.8181493102322978e-03  2.2168880945247229e-03  2.6187144732228327e-03  3.0021436919810329e-03  3.3474370565542890e-03  3.6396582254655603e-03  3.8708449837389315e-03  4.0407364961714152e-03  4.1558273636605305e-03  4.2268798694496037e-03  4.2653711099760747e-03  4.2797144320763959e-03  1.7761116824941878e-04  2.0151597711844997e-04  2.7279767168245642e-04  3.9716026399055595e-04  5.8242999112623141e-04  8.3653513231486535e-04  1.1650278079543986e-03  1.5685368756338785e-03  2.0406836058699603e-03  2.5670398927063135e-03  3.1255938656116998e-03  3.6888887136143629e-03  4.2275705274342377e-03  4.7146468600488631e-03  5.1294829888683486e-03  5.4605822746944255e-03  5.7065258394309558e-03  5.8748980326370406e-03  5.9793308891723717e-03  6.0350050055430152e-03  6.0534332547488084e-03  2.4989208736570222e-04  2.8241652222427865e-04  3.7995591258971833e-04  5.4993933964487423e-04  8.0259804386730515e-04  1.1482647777538869e-03  1.5940817006704388e-03  2.1406457691578533e-03  2.7793010235604922e-03  3.4908374644660040e-03  4.2461868088577949e-03  5.0092912310520186e-03  5.7417384797301884e-03  6.4081821489085375e-03  6.9812361813158842e-03  7.4446805383115095e-03  7.7944841213072385e-03  8.0378497946861447e-03  8.1904313942507637e-03  8.2713305882538678e-03  8.2960264757444922e-03  3.3702991231999139e-04  3.7963363680402318e-04  5.0802391025691587e-04  7.3157573240122380e-04  1.0632401602272434e-03  1.5160699544659320e-03  2.0990078575985347e-03  2.8126310604116439e-03  3.6457680382561376e-03  4.5739531550903195e-03  5.5604452139931650e-03  6.5599770485609277e-03  7.5246214540071119e-03  8.4103762632830367e-03  9.1826317912375877e-03  9.8191013562634773e-03  1.0310356520020065e-02  1.0659530102943520e-02  1.0881539083404083e-02  1.0999124992029749e-02  1.1033261918736895e-02  4.3614794154794243e-04  4.8989821953443729e-04  6.5255054258315094e-04  9.3557362425692673e-04  1.3548472391583266e-03  1.9263587565739623e-03  2.6610131469379066e-03  3.5594338416246778e-03  4.6079020960768258e-03  5.7766299615368121e-03  7.0212425973971374e-03  8.2876155933165382e-03  9.5191659369743293e-03  1.0664539892178644e-02  1.1682854574188120e-02  1.2544532707518544e-02  1.3229642065315003e-02  1.3729271660699366e-02  1.4051166243142389e-02  1.4220741717814626e-02  1.4267635911855992e-02  5.4202530945653095e-04  6.0735882494354946e-04  8.0576383995452740e-04  1.1508504443746169e-03  1.6614841240961825e-03  2.3566532020186087e-03  3.2493081653036503e-03  4.3402431871956016e-03  5.6134176905001734e-03  7.0341680027794055e-03  8.5513650023681421e-03  1.0103666031536318e-02  1.1628608750167111e-02  1.3071410125959745e-02  1.4388525125711232e-02  1.5542524017139847e-02  1.6494275035151221e-02  1.7207910843816808e-02  1.7671865851614781e-02  1.7912456111643386e-02  1.7973714431164533e-02  6.4739740203489254e-04  7.2391157953751535e-04  9.5701436647563484e-04  1.3623922682652132e-03  1.9617626038033044e-03  2.7769886810007395e-03  3.8230365397147323e-03  5.1010337510452898e-03  6.5930910001245069e-03  8.2606196356507459e-03  1.0047440441976391e-02  1.1887925984956882e-02  1.3718569907081169e-02  1.5488155329144953e-02  1.7157470557089126e-02  1.8681605409500944e-02  1.9989251870002864e-02  2.0995740004218024e-02  2.1654192606709397e-02  2.1989746130514333e-02  2.2066319541038857e-02  7.4377448806175193e-04  8.3006402440702202e-04  1.0938790500765840e-03  1.5528147687176156e-03  2.2310795359589144e-03  3.1530547455865515e-03  4.3355417542811012e-03  5.7801543218937443e-03  7.4677895395344526e-03  9.3572150559012249e-03  1.1389378538529281e-02  1.3497917376634366e-02  1.5623985017308608e-02  1.7728222769402970e-02  1.9784077950155583e-02  2.1739029257133738e-02  2.3473850263626167e-02  2.4835016029161269e-02  2.5734494033476718e-02  2.6198224148702064e-02  2.6303241577583188e-02  8.2277412965153980e-04  9.1622171006426763e-04  1.2037687299884291e-03  1.7046285711359663e-03  2.4448437236020680e-03  3.4506940705166891e-03  4.7404589946569153e-03  6.3163209986697557e-03  8.1586198771931989e-03  1.0224782328946486e-02  1.2454864293256544e-02  1.4784506237781601e-02  1.7163241896686741e-02  1.9568388041227784e-02  2.1990280900323563e-02  2.4366459722820092e-02  2.6517785499456308e-02  2.8218329526933927e-02  2.9361199122240882e-02  2.9988841078017640e-02  3.0163370950080832e-02  8.7809732287446208e-04  9.7405669901739751e-04  1.2756762743622401e-03  1.8027882421919213e-03  2.5821209785038429e-03  3.6409708211378872e-03  4.9985743417666354e-03  6.6576574249429740e-03  8.5985512098795090e-03  1.0778374458091895e-02  1.3137449773535332e-02  1.5613983430886397e-02  1.8164817629423107e-02  2.0780648601101591e-02  2.3465106488826493e-02  2.6146607259822180e-02  2.8593626577819588e-02  3.0524592804415697e-02  3.1844241314796233e-02  3.2635780409526124e-02  3.2932967629477838e-02  9.0936250827124794e-04  9.9694114855568543e-04  1.3015468592326011e-03  1.8370162536724282e-03  2.6289750072845883e-03  3.7047866866395346e-03  5.0840649036209195e-03  6.7699640243054854e-03  8.7432043792483091e-03  1.0961280025420628e-02  1.3365038330388988e-02  1.5893627344110293e-02  1.8505454867566530e-02  2.1193508751302062e-02  2.3964837606539596e-02  2.6750402994501883e-02  2.9307979943357567e-02  3.1330011520012663e-02  3.2720161420503810e-02  3.3602529552037096e-02  3.4101752232036597e-02  </DataArray> 
</PointData> 
</Piece>
</UnstructuredGrid>
</VTKFile>