<?xml version="1.0"?>
<VTKFile type="UnstructuredGrid"  version="0.1"  >
<UnstructuredGrid>
<Piece  NumberOfPoints="441" NumberOfCells="800">
<Points>
<DataArray  type="Float64"  NumberOfComponents="3"  format="ascii">-2 -2 0  -1.8 -2 0  -1.6 -2 0  -1.4 -2 0  -1.2 -2 0  -1 -2 0  -0.8 -2 0  -0.6000000000000001 -2 0  -0.3999999999999999 -2 0  -0.2 -2 0  0 -2 0  0.2000000000000002 -2 0  0.3999999999999999 -2 0  0.6000000000000001 -2 0  0.7999999999999998 -2 0  1 -2 0  1.2 -2 0  1.4 -2 0  1.6 -2 0  1.8 -2 0  2 -2 0  -2 -1.8 0  -1.8 -1.8 0  -1.6 -1.8 0  -1.4 -1.8 0  -1.2 -1.8 0  -1 -1.8 0  -0.8 -1.8 0  -0.6000000000000001 -1.8 0  -0.3999999999999999 -1.8 0  -0.2 -1.8 0  0 -1.8 0  0.2000000000000002 -1.8 0  0.3999999999999999 -1.8 0  0.6000000000000001 -1.8 0  0.7999999999999998 -1.8 0  1 -1.8 0  1.2 -1.8 0  1.4 -1.8 0  1.6 -1.8 0  1.8 -1.8 0  2 -1.8 0  -2 -1.6 0  -1.8 -1.6 0  -1.6 -1.6 0  -1.4 -1.6 0  -1.2 -1.6 0  -1 -1.6 0  -0.8 -1.6 0  -0.6000000000000001 -1.6 0  -0.3999999999999999 -1.6 0  -0.2 -1.6 0  0 -1.6 0  0.2000000000000002 -1.6 0  0.3999999999999999 -1.6 0  0.6000000000000001 -1.6 0  0.7999999999999998 -1.6 0  1 -1.6 0  1.2 -1.6 0  1.4 -1.6 0  1.6 -1.6 0  1.8 -1.6 0  2 -1.6 0  -2 -1.4 0  -1.8 -1.4 0  -1.6 -1.4 0  -1.4 -1.4 0  -1.2 -1.4 0  -1 -1.4 0  -0.8 -1.4 0  -0.6000000000000001 -1.4 0  -0.3999999999999999 -1.4 0  -0.2 -1.4 0  0 -1.4 0  0.2000000000000002 -1.4 0  0.3999999999999999 -1.4 0  0.6000000000000001 -1.4 0  0.7999999999999998 -1.4 0  1 -1.4 0  1.2 -1.4 0  1.4 -1.4 0  1.6 -1.4 0  1.8 -1.4 0  2 -1.4 0  -2 -1.2 0  -1.8 -1.2 0  -1.6 -1.2 0  -1.4 -1.2 0  -1.2 -1.2 0  -1 -1.2 0  -0.8 -1.2 0  -0.6000000000000001 -1.2 0  -0.3999999999999999 -1.2 0  -0.2 -1.2 0  0 -1.2 0  0.2000000000000002 -1.2 0  0.3999999999999999 -1.2 0  0.6000000000000001 -1.2 0  0.7999999999999998 -1.2 0  1 -1.2 0  1.2 -1.2 0  1.4 -1.2 0  1.6 -1.2 0  1.8 -1.2 0  2 -1.2 0  -2 -1 0  -1.8 -1 0  -1.6 -1 0  -1.4 -1 0  -1.2 -1 0  -1 -1 0  -0.8 -1 0  -0.6000000000000001 -1 0  -0.3999999999999999 -1 0  -0.2 -1 0  0 -1 0  0.2000000000000002 -1 0  0.3999999999999999 -1 0  0.6000000000000001 -1 0  0.7999999999999998 -1 0  1 -1 0  1.2 -1 0  1.4 -1 0  1.6 -1 0  1.8 -1 0  2 -1 0  -2 -0.8 0  -1.8 -0.8 0  -1.6 -0.8 0  -1.4 -0.8 0  -1.2 -0.8 0  -1 -0.8 0  -0.8 -0.8 0  -0.6000000000000001 -0.8 0  -0.3999999999999999 -0.8 0  -0.2 -0.8 0  0 -0.8 0  0.2000000000000002 -0.8 0  0.3999999999999999 -0.8 0  0.6000000000000001 -0.8 0  0.7999999999999998 -0.8 0  1 -0.8 0  1.2 -0.8 0  1.4 -0.8 0  1.6 -0.8 0  1.8 -0.8 0  2 -0.8 0  -2 -0.6000000000000001 0  -1.8 -0.6000000000000001 0  -1.6 -0.6000000000000001 0  -1.4 -0.6000000000000001 0  -1.2 -0.6000000000000001 0  -1 -0.6000000000000001 0  -0.8 -0.6000000000000001 0  -0.6000000000000001 -0.6000000000000001 0  -0.3999999999999999 -0.6000000000000001 0  -0.2 -0.6000000000000001 0  0 -0.6000000000000001 0  0.2000000000000002 -0.6000000000000001 0  0.3999999999999999 -0.6000000000000001 0  0.6000000000000001 -0.6000000000000001 0  0.7999999999999998 -0.6000000000000001 0  1 -0.6000000000000001 0  1.2 -0.6000000000000001 0  1.4 -0.6000000000000001 0  1.6 -0.6000000000000001 0  1.8 -0.6000000000000001 0  2 -0.6000000000000001 0  -2 -0.3999999999999999 0  -1.8 -0.3999999999999999 0  -1.6 -0.3999999999999999 0  -1.4 -0.3999999999999999 0  -1.2 -0.3999999999999999 0  -1 -0.3999999999999999 0  -0.8 -0.3999999999999999 0  -0.6000000000000001 -0.3999999999999999 0  -0.3999999999999999 -0.3999999999999999 0  -0.2 -0.3999999999999999 0  0 -0.3999999999999999 0  0.2000000000000002 -0.3999999999999999 0  0.3999999999999999 -0.3999999999999999 0  0.6000000000000001 -0.3999999999999999 0  0.7999999999999998 -0.3999999999999999 0  1 -0.3999999999999999 0  1.2 -0.3999999999999999 0  1.4 -0.3999999999999999 0  1.6 -0.3999999999999999 0  1.8 -0.3999999999999999 0  2 -0.3999999999999999 0  -2 -0.2 0  -1.8 -0.2 0  -1.6 -0.2 0  -1.4 -0.2 0  -1.2 -0.2 0  -1 -0.2 0  -0.8 -0.2 0  -0.6000000000000001 -0.2 0  -0.3999999999999999 -0.2 0  -0.2 -0.2 0  0 -0.2 0  0.2000000000000002 -0.2 0  0.3999999999999999 -0.2 0  0.6000000000000001 -0.2 0  0.7999999999999998 -0.2 0  1 -0.2 0  1.2 -0.2 0  1.4 -0.2 0  1.6 -0.2 0  1.8 -0.2 0  2 -0.2 0  -2 0 0  -1.8 0 0  -1.6 0 0  -1.4 0 0  -1.2 0 0  -1 0 0  -0.8 0 0  -0.6000000000000001 0 0  -0.3999999999999999 0 0  -0.2 0 0  0 0 0  0.2000000000000002 0 0  0.3999999999999999 0 0  0.6000000000000001 0 0  0.7999999999999998 0 0  1 0 0  1.2 0 0  1.4 0 0  1.6 0 0  1.8 0 0  2 0 0  -2 0.2000000000000002 0  -1.8 0.2000000000000002 0  -1.6 0.2000000000000002 0  -1.4 0.2000000000000002 0  -1.2 0.2000000000000002 0  -1 0.2000000000000002 0  -0.8 0.2000000000000002 0  -0.6000000000000001 0.2000000000000002 0  -0.3999999999999999 0.2000000000000002 0  -0.2 0.2000000000000002 0  0 0.2000000000000002 0  0.2000000000000002 0.2000000000000002 0  0.3999999999999999 0.2000000000000002 0  0.6000000000000001 0.2000000000000002 0  0.7999999999999998 0.2000000000000002 0  1 0.2000000000000002 0  1.2 0.2000000000000002 0  1.4 0.2000000000000002 0  1.6 0.2000000000000002 0  1.8 0.2000000000000002 0  2 0.2000000000000002 0  -2 0.3999999999999999 0  -1.8 0.3999999999999999 0  -1.6 0.3999999999999999 0  -1.4 0.3999999999999999 0  -1.2 0.3999999999999999 0  -1 0.3999999999999999 0  -0.8 0.3999999999999999 0  -0.6000000000000001 0.3999999999999999 0  -0.3999999999999999 0.3999999999999999 0  -0.2 0.3999999999999999 0  0 0.3999999999999999 0  0.2000000000000002 0.3999999999999999 0  0.3999999999999999 0.3999999999999999 0  0.6000000000000001 0.3999999999999999 0  0.7999999999999998 0.3999999999999999 0  1 0.3999999999999999 0  1.2 0.3999999999999999 0  1.4 0.3999999999999999 0  1.6 0.3999999999999999 0  1.8 0.3999999999999999 0  2 0.3999999999999999 0  -2 0.6000000000000001 0  -1.8 0.6000000000000001 0  -1.6 0.6000000000000001 0  -1.4 0.6000000000000001 0  -1.2 0.6000000000000001 0  -1 0.6000000000000001 0  -0.8 0.6000000000000001 0  -0.6000000000000001 0.6000000000000001 0  -0.3999999999999999 0.6000000000000001 0  -0.2 0.6000000000000001 0  0 0.6000000000000001 0  0.2000000000000002 0.6000000000000001 0  0.3999999999999999 0.6000000000000001 0  0.6000000000000001 0.6000000000000001 0  0.7999999999999998 0.6000000000000001 0  1 0.6000000000000001 0  1.2 0.6000000000000001 0  1.4 0.6000000000000001 0  1.6 0.6000000000000001 0  1.8 0.6000000000000001 0  2 0.6000000000000001 0  -2 0.7999999999999998 0  -1.8 0.7999999999999998 0  -1.6 0.7999999999999998 0  -1.4 0.7999999999999998 0  -1.2 0.7999999999999998 0  -1 0.7999999999999998 0  -0.8 0.7999999999999998 0  -0.6000000000000001 0.7999999999999998 0  -0.3999999999999999 0.7999999999999998 0  -0.2 0.7999999999999998 0  0 0.7999999999999998 0  0.2000000000000002 0.7999999999999998 0  0.3999999999999999 0.7999999999999998 0  0.6000000000000001 0.7999999999999998 0  0.7999999999999998 0.7999999999999998 0  1 0.7999999999999998 0  1.2 0.7999999999999998 0  1.4 0.7999999999999998 0  1.6 0.7999999999999998 0  1.8 0.7999999999999998 0  2 0.7999999999999998 0  -2 1 0  -1.8 1 0  -1.6 1 0  -1.4 1 0  -1.2 1 0  -1 1 0  -0.8 1 0  -0.6000000000000001 1 0  -0.3999999999999999 1 0  -0.2 1 0  0 1 0  0.2000000000000002 1 0  0.3999999999999999 1 0  0.6000000000000001 1 0  0.7999999999999998 1 0  1 1 0  1.2 1 0  1.4 1 0  1.6 1 0  1.8 1 0  2 1 0  -2 1.2 0  -1.8 1.2 0  -1.6 1.2 0  -1.4 1.2 0  -1.2 1.2 0  -1 1.2 0  -0.8 1.2 0  -0.6000000000000001 1.2 0  -0.3999999999999999 1.2 0  -0.2 1.2 0  0 1.2 0  0.2000000000000002 1.2 0  0.3999999999999999 1.2 0  0.6000000000000001 1.2 0  0.7999999999999998 1.2 0  1 1.2 0  1.2 1.2 0  1.4 1.2 0  1.6 1.2 0  1.8 1.2 0  2 1.2 0  -2 1.4 0  -1.8 1.4 0  -1.6 1.4 0  -1.4 1.4 0  -1.2 1.4 0  -1 1.4 0  -0.8 1.4 0  -0.6000000000000001 1.4 0  -0.3999999999999999 1.4 0  -0.2 1.4 0  0 1.4 0  0.2000000000000002 1.4 0  0.3999999999999999 1.4 0  0.6000000000000001 1.4 0  0.7999999999999998 1.4 0  1 1.4 0  1.2 1.4 0  1.4 1.4 0  1.6 1.4 0  1.8 1.4 0  2 1.4 0  -2 1.6 0  -1.8 1.6 0  -1.6 1.6 0  -1.4 1.6 0  -1.2 1.6 0  -1 1.6 0  -0.8 1.6 0  -0.6000000000000001 1.6 0  -0.3999999999999999 1.6 0  -0.2 1.6 0  0 1.6 0  0.2000000000000002 1.6 0  0.3999999999999999 1.6 0  0.6000000000000001 1.6 0  0.7999999999999998 1.6 0  1 1.6 0  1.2 1.6 0  1.4 1.6 0  1.6 1.6 0  1.8 1.6 0  2 1.6 0  -2 1.8 0  -1.8 1.8 0  -1.6 1.8 0  -1.4 1.8 0  -1.2 1.8 0  -1 1.8 0  -0.8 1.8 0  -0.6000000000000001 1.8 0  -0.3999999999999999 1.8 0  -0.2 1.8 0  0 1.8 0  0.2000000000000002 1.8 0  0.3999999999999999 1.8 0  0.6000000000000001 1.8 0  0.7999999999999998 1.8 0  1 1.8 0  1.2 1.8 0  1.4 1.8 0  1.6 1.8 0  1.8 1.8 0  2 1.8 0  -2 2 0  -1.8 2 0  -1.6 2 0  -1.4 2 0  -1.2 2 0  -1 2 0  -0.8 2 0  -0.6000000000000001 2 0  -0.3999999999999999 2 0  -0.2 2 0  0 2 0  0.2000000000000002 2 0  0.3999999999999999 2 0  0.6000000000000001 2 0  0.7999999999999998 2 0  1 2 0  1.2 2 0  1.4 2 0  1.6 2 0  1.8 2 0  2 2 0  </DataArray>
</Points>
<Cells>
[...]
<PointData  Scalars="f_18-2"> 
<DataArray  type="Float64"  Name="f_18-2"  format="ascii">1.9051433142417953e-01  1.9051433084430963e-01  1.9051433028415535e-01  1.9051433132695056e-01  1.9051433270958004e-01  1.9051433198065629e-01  1.9051433067424159e-01  1.9051433065508583e-01  1.9051433102091472e-01  1.9051433108572138e-01  1.9051433108681462e-01  1.9051433108414825e-01  1.9051433107120858e-01  1.9051433107027135e-01  1.9051433107198382e-01  1.9051433107230040e-01  1.9051433107210264e-01  1.9051433107201551e-01  1.9051433107207166e-01  1.9051433107206897e-01  1.9051433107206658e-01  1.9051433084959654e-01  1.9051433059483186e-01  1.9051433175483778e-01  1.9051433291218201e-01  1.9051433022037353e-01  1.9051432746266567e-01  1.9051432924690473e-01  1.9051433149639824e-01  1.9051433136749443e-01  1.9051433096442288e-01  1.9051433100611914e-01  1.9051433104296003e-01  1.9051433106990889e-01  1.9051433107898427e-01  1.9051433107235688e-01  1.9051433107135776e-01  1.9051433107197577e-01  1.9051433107219401e-01  1.9051433107207466e-01  1.9051433107207166e-01  1.9051433107208307e-01  1.9051433011523217e-01  1.9051433176633406e-01  1.9051433349456851e-01  1.9051432751564712e-01  1.9051432218917866e-01  1.9051433458558831e-01  1.9051434571238077e-01  1.9051433855573924e-01  1.9051433129531456e-01  1.9051433154688566e-01  1.9051433172836754e-01  1.9051433120304007e-01  1.9051433107009810e-01  1.9051433103687945e-01  1.9051433106787397e-01  1.9051433107787749e-01  1.9051433107184804e-01  1.9051433107158589e-01  1.9051433107209859e-01  1.9051433107209390e-01  1.9051433107198823e-01  1.9051433116053426e-01  1.9051433337002813e-01  1.9051432746078326e-01  1.9051431891151607e-01  1.9051434990507712e-01  1.9051437461806453e-01  1.9051431718473494e-01  1.9051427350703737e-01  1.9051430298560135e-01  1.9051432629643431e-01  1.9051432727918782e-01  1.9051432982076086e-01  1.9051433133853857e-01  1.9051433124238662e-01  1.9051433110627550e-01  1.9051433103406284e-01  1.9051433107380714e-01  1.9051433107553878e-01  1.9051433107125093e-01  1.9051433107191793e-01  1.9051433107244028e-01  1.9051433337685153e-01  1.9051433054852313e-01  1.9051431974556643e-01  1.9051435041316556e-01  1.9051439519899882e-01  1.9051423626382050e-01  1.9051411255028347e-01  1.9051437029042328e-01  1.9051453637042731e-01  1.9051441884775661e-01  1.9051434800024758e-01  1.9051433912302773e-01  1.9051432915617714e-01  1.9051432961226994e-01  1.9051433107313204e-01  1.9051433124494421e-01  1.9051433107987020e-01  1.9051433104134843e-01  1.9051433108207003e-01  1.9051433107161975e-01  1.9051433107127910e-01  1.9051433314770985e-01  1.9051432573164523e-01  1.9051433269532542e-01  1.9051438797319900e-01  1.9051423270465584e-01  1.9051396758856970e-01  1.9051477650846804e-01  1.9051545032202397e-01  1.9051433062718093e-01  1.9051372351212756e-01  1.9051415575379041e-01  1.9051432358245016e-01  1.9051433896156889e-01  1.9051434346382959e-01  1.9051432986917477e-01  1.9051433009547408e-01  1.9051433107829785e-01  1.9051433125036207e-01  1.9051433100290904e-01  1.9051433108260013e-01  1.9051433107030918e-01  1.9051433084844441e-01  1.9051432656460332e-01  1.9051435355321533e-01  1.9051432802525123e-01  1.9051403884332313e-01  1.9051479856936962e-01  1.9051656912991205e-01  1.9051251109311412e-01  1.9050856980719141e-01  1.9051330211015044e-01  1.9051548494367543e-01  1.9051423498751560e-01  1.9051418165023912e-01  1.9051427374662261e-01  1.9051433463232004e-01  1.9051434092516134e-01  1.9051432889191844e-01  1.9051433070962703e-01  1.9051433133862974e-01  1.9051433101018536e-01  1.9051433109103100e-01  1.9051432992660131e-01  1.9051433095907053e-01  1.9051435063638655e-01  1.9051423824884206e-01  1.9051430117205595e-01  1.9051586147191368e-01  1.9051238361826939e-01  1.9049933971161334e-01  1.9051898940279377e-01  1.9054318073709117e-01  1.9052321559141461e-01  1.9051489758959761e-01  1.9051633305765661e-01  1.9051455347669885e-01  1.9051428389614161e-01  1.9051426297150242e-01  1.9051435557343471e-01  1.9051432832438345e-01  1.9051433079865904e-01  1.9051433122493938e-01  1.9051433102290044e-01  1.9051433055035466e-01  1.9051433232384463e-01  1.9051433509416643e-01  1.9051425021041593e-01  1.9051468099157212e-01  1.9051480259203898e-01  1.9050627740979503e-01  1.9051968167477737e-01  1.9062287244818960e-01  1.9053615035485927e-01  1.9038263322966659e-01  1.9047017269174821e-01  1.9050343425857982e-01  1.9051128906880646e-01  1.9051596892537398e-01  1.9051439355422919e-01  1.9051421947694128e-01  1.9051435445247228e-01  1.9051432875969840e-01  1.9051433116339508e-01  1.9051433103176305e-01  1.9051433101423670e-01  1.9051433136370471e-01  1.9051433044021285e-01  1.9051430678565426e-01  1.9051463149364856e-01  1.9051322859314931e-01  1.9051001139546142e-01  1.9055557233776388e-01  1.9053280481973336e-01  1.8967153836136347e-01  1.8996446790434690e-01  1.9098381032473352e-01  1.9059534484591081e-01  1.9052213991862690e-01  1.9049745191291106e-01  1.9051696473632440e-01  1.9051435406673159e-01  1.9051427749169231e-01  1.9051433931745940e-01  1.9051432996425047e-01  1.9051433148563818e-01  1.9051433108769925e-01  1.9051433093512074e-01  1.9051433200265655e-01  1.9051432464039222e-01  1.9051442546814443e-01  1.9051342220747688e-01  1.9051651190450725e-01  1.9054562757127455e-01  1.9032303527126562e-01  1.8997299649251487e-01  1.9751690697152888e-01  1.9788007027470139e-01  1.9002656693785172e-01  1.9100927068274076e-01  1.9054911038707731e-01  1.9049768487335886e-01  1.9051605537532929e-01  1.9051423433947581e-01  1.9051434158013400e-01  1.9051432970158383e-01  1.9051433123672079e-01  1.9051433109859539e-01  1.9051433098418213e-01  1.9051433182872277e-01  1.9051432592717035e-01  1.9051435712706202e-01  1.9051412361961348e-01  1.9051606898439261e-01  1.9051714704502495e-01  1.9032719931449774e-01  1.9115891310686112e-01  1.9802814345642641e-01  1.3328543169745702e-01  1.2040981921138742e-01  1.8540875231797227e-01  1.9104708765597983e-01  1.9052159884685746e-01  1.9051153726966238e-01  1.9051456454850674e-01  1.9051427517840536e-01  1.9051434293119196e-01  1.9051432811091507e-01  1.9051433108417903e-01  1.9051433103661297e-01  1.9051433122169700e-01  1.9051432994620604e-01  1.9051433910099250e-01  1.9051431401175811e-01  1.9051423729655853e-01  1.9051488697110905e-01  1.9046931662034725e-01  1.9140065044762228e-01  1.9135488132577158e-01  9.5342687038572238e-02  9.5899863892103601e-03  1.1402374099934319e-01  1.8733823546056041e-01  1.9063645860836451e-01  1.9050106749512488e-01  1.9051658852787509e-01  1.9051413832542055e-01  1.9051434658927546e-01  1.9051432547688232e-01  1.9051433106954127e-01  1.9051433107609231e-01  1.9051433104438847e-01  1.9051433144187099e-01  1.9051432803594570e-01  1.9051434796702540e-01  1.9051415360843343e-01  1.9051646354575916e-01  1.9050106075386231e-01  1.9064256365121948e-01  1.8725339314823186e-01  1.1221269678964574e-01  9.7041928705080775e-03  9.7623265682889065e-02  1.9118179152465015e-01  1.9139563962288828e-01  1.9047161672085550e-01  1.9051473273615188e-01  1.9051419482280219e-01  1.9051431901425483e-01  1.9051434582548538e-01  1.9051433107012408e-01  1.9051433107952845e-01  1.9051433102991630e-01  1.9051433128895420e-01  1.9051432956173356e-01  1.9051434321796379e-01  1.9051426707635710e-01  1.9051458640740426e-01  1.9051160308023385e-01  1.9052124085320185e-01  1.9104513411472798e-01  1.8546500851995815e-01  1.2080902990259383e-01  1.3516085695395244e-01  1.9756707508478372e-01  1.9118108833842615e-01  1.9033225694344896e-01  1.9051547673534000e-01  1.9051628473105225e-01  1.9051410553711098e-01  1.9051438008579263e-01  1.9051433107214519e-01  1.9051433107176716e-01  1.9051433107320850e-01  1.9051433107551216e-01  1.9051433118585642e-01  1.9051432914544064e-01  1.9051434254408051e-01  1.9051424034436393e-01  1.9051599023339114e-01  1.9049792254462011e-01  1.9054874718591319e-01  1.9100913431850802e-01  1.9000040613436917e-01  1.9766906691374764e-01  1.9724415885748106e-01  1.9002249548952249e-01  1.9032538220708739e-01  1.9054268677829272e-01  1.9051725111035706e-01  1.9051328902636275e-01  1.9051453068047014e-01  1.9051433107234922e-01  1.9051433107127505e-01  1.9051433107779525e-01  1.9051433103261889e-01  1.9051433127384967e-01  1.9051433001732662e-01  1.9051433973995605e-01  1.9051427287267048e-01  1.9051438201891435e-01  1.9051686148637093e-01  1.9049768737324577e-01  1.9052191483657885e-01  1.9059583522678075e-01  1.9098595788347769e-01  1.8998678085744505e-01  1.8970156824634832e-01  1.9052819349800137e-01  1.9055395343262832e-01  1.9051085880196836e-01  1.9051297308107049e-01  1.9051497671208567e-01  1.9051433107207746e-01  1.9051433107208493e-01  1.9051433107122881e-01  1.9051433107788404e-01  1.9051433105117357e-01  1.9051433121767011e-01  1.9051432857616390e-01  1.9051435576287393e-01  1.9051421318956546e-01  1.9051441249418299e-01  1.9051593930533814e-01  1.9051128171862869e-01  1.9050336578119839e-01  1.9047120573547147e-01  1.9038509168054699e-01  1.9053431319315695e-01  1.9061870618680798e-01  1.9052026226855098e-01  1.9050660814219436e-01  1.9051458575988853e-01  1.9051509576082709e-01  1.9051433107205196e-01  1.9051433107215382e-01  1.9051433107152829e-01  1.9051433107593191e-01  1.9051433104461069e-01  1.9051433121445918e-01  1.9051433084293101e-01  1.9051432806232749e-01  1.9051435632344935e-01  1.9051426149672326e-01  1.9051428535978404e-01  1.9051455669093792e-01  1.9051635294993610e-01  1.9051479258194759e-01  1.9052243423129511e-01  1.9054220413512968e-01  1.9051924385144237e-01  1.9049997120314163e-01  1.9051228617276983e-01  1.9051580499620926e-01  1.9051431371367772e-01  1.9051433107209428e-01  1.9051433107201074e-01  1.9051433107230409e-01  1.9051433107116775e-01  1.9051433107851812e-01  1.9051433102249615e-01  1.9051433130550494e-01  1.9051433070195029e-01  1.9051432904420437e-01  1.9051434132973386e-01  1.9051433275059226e-01  1.9051427049812045e-01  1.9051418193839892e-01  1.9051425836439434e-01  1.9051566161167266e-01  1.9051366800694189e-01  1.9050877208558301e-01  1.9051235624712795e-01  1.9051641412138659e-01  1.9051485668899207e-01  1.9051378836859895e-01  1.9051433107207630e-01  1.9051433107205229e-01  1.9051433107216534e-01  1.9051433107178997e-01  1.9051433107031987e-01  1.9051433109713017e-01  1.9051433093562573e-01  1.9051433142296259e-01  1.9051433109150501e-01  1.9051432912876790e-01  1.9051432861167814e-01  1.9051435579404302e-01  1.9051434723652613e-01  1.9051431799234148e-01  1.9051397200893846e-01  1.9051306197784812e-01  1.9051423121801436e-01  1.9051651411480180e-01  1.9051524455738494e-01  1.9051365360196373e-01  1.9051402769064285e-01  </DataArray> 
</PointData> 
</Piece>
</UnstructuredGrid>
</VTKFile>