<?xml version="1.0"?>
<VTKFile type="UnstructuredGrid"  version="0.1"  >
<UnstructuredGrid>
<Piece  NumberOfPoints="1877" NumberOfCells="3564">
<Points>
<DataArray  type="Float64"  NumberOfComponents="3"  format="ascii">3.8 0 0  3.791514138767982 0.2538120082314619 0  3.766094454988164 0.5064904304203595 0  3.72385447913903 0.7569067433945771 0  3.664982865206631 1.003942527110887 0  3.589742548110091 1.246494459790362 0  3.498469569370429 1.48347924562128 0  3.391571576267549 1.713838453021187 0  3.26952600118853 1.936543241849286 0  3.132877929298689 2.150598958456261 0  2.982237664058911 2.35504957804893 0  2.818278001462239 2.548981974529049 0  2.641731225163641 2.731529998736131 0  2.453385835923449 2.901878346879861 0  2.25408302997155 3.059266201884739 0  2.044712942020816 3.202990631383829 0  1.826210669709398 3.332409727185352 0  1.599552097227673 3.446945472190495 0  1.365749536782549 3.546086321958089 0  1.12584720736541 3.629389489386267 0  0.8809165710166079 3.696482922307141 0  0.6320515474158938 3.747066965162108 0  0.380363628171574 3.780915697336315 0  0.1269769126291636 3.797877942174968 0  -0.1269769126291632 3.797877942174968 0  -0.3803636281715737 3.780915697336315 0  -0.6320515474158941 3.747066965162108 0  -0.8809165710166067 3.696482922307141 0  -1.125847207365408 3.629389489386267 0  -1.365749536782549 3.546086321958089 0  -1.599552097227672 3.446945472190495 0  -1.826210669709398 3.332409727185352 0  -2.044712942020816 3.202990631383829 0  -2.254083029971549 3.059266201884739 0  -2.453385835923449 2.901878346879862 0  -2.64173122516364 2.731529998736132 0  -2.818278001462239 2.548981974529049 0  -2.982237664058911 2.35504957804893 0  -3.132877929298688 2.150598958456262 0  -3.269526001188529 1.936543241849287 0  -3.391571576267548 1.713838453021188 0  -3.498469569370429 1.483479245621281 0  -3.589742548110092 1.246494459790362 0  -3.664982865206631 1.003942527110887 0  -3.72385447913903 0.7569067433945779 0  -3.766094454988164 0.5064904304203601 0  -3.791514138767982 0.2538120082314624 0  -3.8 -1.222173213754244e-15 0  -3.791514138767982 -0.2538120082314615 0  -3.766094454988164 -0.5064904304203577 0  -3.72385447913903 -0.756906743394577 0  -3.664982865206631 -1.003942527110887 0  -3.589742548110091 -1.246494459790363 0  -3.498469569370429 -1.48347924562128 0  -3.39157157626755 -1.713838453021186 0  -3.26952600118853 -1.936543241849287 0  -3.13287792929869 -2.150598958456261 0  -2.982237664058912 -2.355049578048929 0  -2.818278001462238 -2.548981974529049 0  -2.641731225163642 -2.731529998736131 0  -2.45338583592345 -2.901878346879861 0  -2.254083029971549 -3.059266201884739 0  -2.044712942020817 -3.202990631383828 0  -1.826210669709397 -3.332409727185352 0  -1.599552097227673 -3.446945472190495 0  -1.365749536782551 -3.546086321958089 0  -1.125847207365409 -3.629389489386267 0  -0.8809165710166093 -3.69648292230714 0  -0.6320515474158942 -3.747066965162108 0  -0.3803636281715754 -3.780915697336315 0  -0.1269769126291632 -3.797877942174968 0  0.1269769126291619 -3.797877942174968 0  0.380363628171574 -3.780915697336315 0  0.6320515474158929 -3.747066965162108 0  0.8809165710166078 -3.696482922307141 0  1.125847207365408 -3.629389489386267 0  1.365749536782546 -3.54608632195809 0  1.599552097227672 -3.446945472190495 0  1.826210669709396 -3.332409727185353 0  2.044712942020815 -3.202990631383829 0  2.254083029971548 -3.059266201884741 0  2.453385835923449 -2.901878346879862 0  2.641731225163639 -2.731529998736133 0  2.818278001462238 -2.548981974529049 0  2.982237664058912 -2.355049578048929 0  3.132877929298689 -2.150598958456261 0  3.269526001188529 -1.936543241849287 0  3.391571576267547 -1.71383845302119 0  3.498469569370429 -1.483479245621282 0  3.589742548110091 -1.246494459790362 0  3.664982865206631 -1.003942527110888 0  3.72385447913903 -0.7569067433945766 0  3.766094454988164 -0.5064904304203607 0  3.791514138767982 -0.2538120082314646 0  8.881784197001252e-16 4.440892098500626e-16 0  -1.72443572354812 -0.8002229221174306 0  -0.1269769126291623 -1.896816320414355 0  -1.554769576612776 1.09229882170639 0  0.5022517391431267 1.833515334066992 0  1.667135852719428 -0.9136155309037579 0  1.965100542654962 0.7568442818899507 0  -0.7960287086712617 2.292459547325184 0  1.183731752573322 -2.160035132902387 0  -1.416825215618293 -2.063955453075558 0  -2.515706896037917 0.253082448536834 0  2.616730951431121 -0.2211932090418347 0  1.710413724660432 1.942912467442407 0  -0.3930457970918355 1.093214516822022 0  0.8370277638995649 0.7562625569431112 0  0.684787136044805 -1.249577253631003 0  -1.80990421086776 2.09351289594487 0  0.1050422897628874 2.775659676933817 0  2.130507006150614 -1.810276805973739 0  0.3728751237186058 -2.772575455520831 0  -2.701437386013563 -0.8379937578510441 0  -0.6754387710645746 -2.724805957758464 0  -2.529002635686468 1.238071213383729 0  -0.8652000953742425 -1.260377381178862 0  -1.092914493959803 0.09702690232468003 0  0.961676812908783 -0.2230388434123778 0  1.040501113638078 2.615246284303098 0  -2.294684903331998 -1.697797182181066 0  2.564322377533406 1.405287245509713 0  2.686589129475362 -1.111496855225966 0  1.789049254730435 -0.08345541836962 0  2.787046634261005 0.5983792992826934 0  -0.09122375084757925 -1.108982991195621 0  -0.5959717326534543 -0.5092194843126774 0  1.400806572147902 1.256051097712437 0  -1.38446994891798 2.739773354174334 0  -0.6114430671781698 3.008197541269587 0  -1.78158524907373 0.3822475152940383 0  -1.208890001819501 1.713552084959874 0  1.08890329964202 -2.877465094335192 0  1.836231056092947 -2.470000761111089 0  -1.382752080436066 -2.772023709043377 0  -0.1254308691685591 2.12368763470571 0  0.3978264780802168 -0.6215628141876701 0  -3.029316814037108 0.7219228213501256 0  -3.112411378519371 -0.1040592651194955 0  0.5512115624070895 -1.914722195861553 0  1.502544778994429 -1.566731602691134 0  -2.048406828967776 -2.342756426989613 0  -2.05342951871638 -0.2235071405304951 0  1.713954161476771 2.616357125092636 0  -1.679631135665475 -1.458621503127562 0  -0.7598699300301097 -2.073232712300431 0  0.1528150341192754 0.6722054864678005 0  1.401229255819443 0.4363889077372878 0  2.37270129439703 2.047878995855394 0  3.101586119091324 -0.6310413284559921 0  -0.9736431722299681 0.7571723447931991 0  -0.5210629802987329 0.3345553782400223 0  1.114471781560975 1.798327720988608 0  0.4326351382928105 1.221235422441112 0  -2.465201868288395 1.914403088339286 0  -0.2118419959115311 -3.164554460129895 0  0.6437001598151496 3.109075876556892 0  3.170646509135186 0.09118032114464475 0  2.135323508248602 -0.5583394935489188 0  2.297976911763038 0.2725301307730365 0  1.980945422184981 1.343292074188177 0  -1.138582390732498 -0.7385652321349792 0  -0.5869233037901731 1.70665663651276 0  2.71841151484791 -1.707473074786617 0  -2.224642101285502 0.7495954657097892 0  -0.03989315619283434 1.542186319650619 0  0.5584743773585862 0.2232236747157368 0  -1.989602890014796 1.514606722211793 0  -2.936432410058634 -1.362648947530848 0  -1.497901299090654 -0.2887969572821326 0  -2.596956207267446 -0.2882191858621606 0  -2.149827728343296 -1.159894998545433 0  0.9201694156332205 -0.7624551234782984 0  -1.918879831417257 2.628413962307357 0  0.6543756202545508 -3.219418515939922 0  2.33728129745568 -2.298004611517066 0  -0.1459099410415831 -2.630803362886184 0  2.498001805406602e-16 3.289258128066522 0  2.13248221148087 -1.241196372391442 0  3.042530466520353 1.103090787947209 0  -1.309719857079147 2.227403006443084 0  0.2376308678767254 -1.505763459341409 0  -3.210072254212769 -0.7649990280847021 0  -0.9026555461462868 1.281756076570537 0  0.3476963140425979 2.323158755402862 0  -2.898310940657907 1.588318003271318 0  0.782602960753811 -2.471996832023488 0  1.005349389898306 -1.681871732809325 0  -0.8739392103190005 -3.190394016148269 0  -0.3710208540675897 2.564522818628889 0  1.376605353268453 2.993064814746432 0  -0.1038103414775514 -0.6073013533642533 0  0.2024333652500968 -2.272551091238623 0  -2.51247366090108 -2.150460287440118 0  1.179056191499975 -1.18798239937563 0  1.357047363875565 -0.5247672156530518 0  -1.210323639379413 -1.614587120035977 0  -0.5419011278823318 -1.631736184244192 0  0.916885844111299 1.234055167791639 0  1.691806089322109 -2.010084446373706 0  -1.865089867201031 -1.903256397627854 0  3.274002826575412 0.5680095628738839 0  0.8079257100392474 2.199215336260915 0  1.325436379711165 2.229238472000791 0  -2.188502121841508 -0.6827577138231374 0  2.790183587878455 1.822505748825276 0  -1.093073167775173 -2.403230046321077 0  -1.089037887928616 3.136288021255054 0  3.150993940536583 -1.093173809172839 0  -1.395811319670291 -1.108583535517194 0  -2.32416641443778 2.372503774987586 0  -2.737396415698884 -1.763520065949529 0  -3.315644179256624 0.3335568816402068 0  2.573992827243661 -0.6724392338501909 0  -1.336891434353034 0.4819546205282169 0  2.425254415268905 0.9327090853582424 0  -3.126523299770202 1.179723376911983 0  2.185109563831708 2.49641352426115 0  1.006852626273773 0.2230578137113148 0  0.2220459523997708 -3.179685082657218 0  1.518822281105044 -3.005647626190841 0  -1.8540071735607 -2.772046698603166 0  0.3973129565644846 -0.18379720039224 0  1.873622749069057 0.3374176920292842 0  1.39684136612504 -2.553185632106517 0  -0.4312608145530598 -0.09862965054425915 0  1.375555820532195 0.01265068832605112 0  0.6077996340509131 2.67389601328593 0  2.205445842558727 -0.1369665910566973 0  2.757150840466735 0.1771090174358826 0  -1.079265117037647 -0.3227631003018618 0  0.03181538742369222 1.079696407694121 0  -1.61839638545963 -2.428509260379417 0  -0.4659545822447995 -2.366403964006653 0  1.260764890184742 0.8461476769987656 0  -0.9415949021251331 2.711671324885486 0  -2.55403330106177 -1.218971769907921 0  -0.406420542365856 3.367797009360826 0  2.080594818898633 1.74908936006036 0  -1.626004573354501 1.719085193445665 0  -2.624035608191273 0.6501568716294769 0  -2.919898210226934 0.251345175787562 0  -2.139130277
[...]
<PointData  Scalars="f_50675-2"> 
<DataArray  type="Float64"  Name="f_50675-2"  format="ascii">1.0000000000000000e+00  1.0000000000000000e+00  1.0000000000000000e+00  1.0000000000000000e+00  1.0000000000000000e+00  1.0000000000000000e+00  1.0000000000000000e+00  1.0000000000000000e+00  1.0000000000000000e+00  1.0000000000000000e+00  1.0000000000000000e+00  1.0000000000000000e+00  1.0000000000000000e+00  1.0000000000000000e+00  1.0000000000000000e+00  1.0000000000000000e+00  1.0000000000000000e+00  1.0000000000000000e+00  1.0000000000000000e+00  1.0000000000000000e+00  1.0000000000000000e+00  1.0000000000000000e+00  1.0000000000000000e+00  1.0000000000000000e+00  1.0000000000000000e+00  1.0000000000000000e+00  1.0000000000000000e+00  1.0000000000000000e+00  1.0000000000000000e+00  1.0000000000000000e+00  1.0000000000000000e+00  1.0000000000000000e+00  1.0000000000000000e+00  1.0000000000000000e+00  1.0000000000000000e+00  1.0000000000000000e+00  1.0000000000000000e+00  1.0000000000000000e+00  1.0000000000000000e+00  1.0000000000000000e+00  1.0000000000000000e+00  1.0000000000000000e+00  1.0000000000000000e+00  1.0000000000000000e+00  1.0000000000000000e+00  1.0000000000000000e+00  1.0000000000000000e+00  1.0000000000000000e+00  1.0000000000000000e+00  1.0000000000000000e+00  1.0000000000000000e+00  1.0000000000000000e+00  1.0000000000000000e+00  1.0000000000000000e+00  1.0000000000000000e+00  1.0000000000000000e+00  1.0000000000000000e+00  1.0000000000000000e+00  1.0000000000000000e+00  1.0000000000000000e+00  1.0000000000000000e+00  1.0000000000000000e+00  1.0000000000000000e+00  1.0000000000000000e+00  1.0000000000000000e+00  1.0000000000000000e+00  1.0000000000000000e+00  1.0000000000000000e+00  1.0000000000000000e+00  1.0000000000000000e+00  1.0000000000000000e+00  1.0000000000000000e+00  1.0000000000000000e+00  1.0000000000000000e+00  1.0000000000000000e+00  1.0000000000000000e+00  1.0000000000000000e+00  1.0000000000000000e+00  1.0000000000000000e+00  1.0000000000000000e+00  1.0000000000000000e+00  1.0000000000000000e+00  1.0000000000000000e+00  1.0000000000000000e+00  1.0000000000000000e+00  1.0000000000000000e+00  1.0000000000000000e+00  1.0000000000000000e+00  1.0000000000000000e+00  1.0000000000000000e+00  1.0000000000000000e+00  1.0000000000000000e+00  1.0000000000000000e+00  1.0000000000000000e+00  1.4121881722120752e-01  2.0930009193956486e-01  2.0913190001357362e-01  2.0929686198206851e-01  2.0945052144461970e-01  2.0948267498846548e-01  2.3066271410776920e-01  2.7745143976830489e-01  2.8390603196645448e-01  2.9185444259852478e-01  2.9624847815240979e-01  3.1667597584637713e-01  3.0839262158687636e-01  1.6288713771833749e-01  1.6149616783930906e-01  1.7520587890447384e-01  3.5100696514009450e-01  3.5331020908199079e-01  3.5959505046639623e-01  3.5942660821759043e-01  3.6795584371386864e-01  3.6216355714535103e-01  3.6405038002442192e-01  1.8105067270193048e-01  1.6031367371828578e-01  1.5660014565057156e-01  3.6480967721840840e-01  3.7455037869344371e-01  3.9750157461983049e-01  3.9194612375210974e-01  1.9970868667319078e-01  3.7449852073333800e-01  1.6088671788274420e-01  1.5077125004558092e-01  2.0764055629307360e-01  4.4866747718435057e-01  4.4739564485969419e-01  2.0236850865586636e-01  2.2966764997160238e-01  4.5088404872662297e-01  4.5244226491712575e-01  4.5902015615115838e-01  2.3374167746691421e-01  1.4973472993914833e-01  4.6701983814439091e-01  4.6577369202139468e-01  2.1845806728617023e-01  2.3891033652716609e-01  4.6521092701385924e-01  2.2634808642753243e-01  4.7285866403215898e-01  2.4589746687605751e-01  2.4365709724327117e-01  1.4851177742265501e-01  1.7749046887302561e-01  4.7458188440106158e-01  4.8676851955754891e-01  1.6579456174957546e-01  1.4712495745029835e-01  2.3228056834584221e-01  1.6866940584697862e-01  4.6975191466313349e-01  4.8998425617200470e-01  4.9193631295384282e-01  4.9131190429031468e-01  2.4394805259214405e-01  2.5905185892314786e-01  2.7182080466903408e-01  1.7158872008036194e-01  2.0081639116058442e-01  5.0969185631728853e-01  2.6402873780560343e-01  1.8201892911795992e-01  1.4675485136057273e-01  2.9103215736300103e-01  5.2049901752229621e-01  1.8097366410565083e-01  3.1385931021368529e-01  2.8001151870642488e-01  1.6423932011970263e-01  5.3078111730767819e-01  5.4736988375241991e-01  5.4454583313737515e-01  3.1866325142669222e-01  5.4912733853163165e-01  2.8464715066118845e-01  5.2140936079182709e-01  3.0747991717923545e-01  1.8090617881355034e-01  5.5511129127503511e-01  1.8350915532964998e-01  2.6483916402112068e-01  5.5689977371283406e-01  3.0983757834749759e-01  2.1512400443198149e-01  5.5858567723356656e-01  3.0946918558586606e-01  5.5277873463095606e-01  1.4701606610844961e-01  2.5441656462039020e-01  5.5701020946885627e-01  1.9078624626514640e-01  1.7682497098440123e-01  2.2125034217779999e-01  1.9403736390564005e-01  1.8171735524771512e-01  3.1760376993233336e-01  3.2558971508859297e-01  5.6705103586325700e-01  2.6373407217698536e-01  3.1017876206180095e-01  2.5589925039933004e-01  5.7326544793624301e-01  3.1995968964640153e-01  5.6500004840324292e-01  5.7364903621769681e-01  1.9889996659241690e-01  5.6610992501819313e-01  5.3138397549425576e-01  5.7313981434164585e-01  3.2472816993651277e-01  1.7498655583239761e-01  3.1075678877462587e-01  5.7519088237858951e-01  5.6384544990128027e-01  1.5805712082720949e-01  4.9666328763410816e-01  5.9236898159426576e-01  5.7337598299627235e-01  1.4419111704280033e-01  2.0974131731533557e-01  3.9293889601702908e-01  1.4420061487052774e-01  1.7254852096566228e-01  3.4446175931557627e-01  2.4385303399952024e-01  3.4953438841330337e-01  1.6145454953195404e-01  1.5979263296898039e-01  3.9478487197445938e-01  2.7471467189443310e-01  1.8046922855959249e-01  3.8017735285285381e-01  3.6775830721277064e-01  6.0808758024942455e-01  3.3786008093999614e-01  2.6725321759819876e-01  3.3491209186812904e-01  3.9887952228637186e-01  2.7724846925074736e-01  1.6284970344511565e-01  1.6252456623660699e-01  1.6999963497164661e-01  1.7981693914393482e-01  5.9647286856028481e-01  2.0270536144470558e-01  4.1891078859681896e-01  6.1223788563954240e-01  1.5479140035950884e-01  6.1366210917689590e-01  6.1045459323913354e-01  6.2364085697688909e-01  1.4363896370971652e-01  2.2186320153928349e-01  2.5235486749870961e-01  4.1658976680538923e-01  6.2320738709629142e-01  2.1770615524940634e-01  6.1186838874670113e-01  4.2247536545805220e-01  3.7338303426703967e-01  1.7904317997500330e-01  2.4160084586105837e-01  4.8343010875996789e-01  6.3159146712536784e-01  6.3105784386781782e-01  3.9711585498411450e-01  4.0674586916754601e-01  1.8872521330332254e-01  1.5030492858881664e-01  6.4583977032418127e-01  4.0615901441086349e-01  6.2884914697940775e-01  6.1896194546732153e-01  2.8217863254898162e-01  4.1639101252283361e-01  6.2153143720789739e-01  6.4123664182094586e-01  2.0486891923190109e-01  2.5115872229317193e-01  1.5548874707269997e-01  6.5088921095625030e-01  6.5307761457187530e-01  6.3753232721042274e-01  2.7648004019329836e-01  4.3292492671321198e-01  6.5825718658524945e-01  4.0447023835490054e-01  4.7925349760449754e-01  1.9653225355644582e-01  6.6170260355608168e-01  1.4310406661326497e-01  6.5887651660480218e-01  6.4220211122776194e-01  2.5338808146175645e-01  2.7985001499126538e-01  2.2105183573611695e-01  1.5998860079650584e-01  1.5273851389001916e-01  4.1635416739956055e-01  1.5113028241623855e-01  1.5058598932100462e-01  1.8025970458049251e-01  6.4848638272123305e-01  4.2372075534215242e-01  4.1857997441922534e-01  1.9489527108808055e-01  2.5426331374989120e-01  2.1352621070289840e-01  6.6236955667848008e-01  2.5614638068654555e-01  2.1409979113750291e-01  2.6221507598523813e-01  3.9339070586960939e-01  4.5556319049072502e-01  2.9264810867569668e-01  1.8293215797403470e-01  1.6014849664404851e-01  4.0883964538399681e-01  2.1396344373711379e-01  4.5158456705679467e-01  2.1602352888832688e-01  2.1602673128431465e-01  2.6442415464783331e-01  6.7245266327301911e-01  6.5005991319027157e-01  3.8552787169200858e-01  2.9227307103051686e-01  2.6615967253222272e-01  2.3399582426622934e-01  4.8495638148111758e-01  2.2800324445276873e-01  2.6375746908148157e-01  6.2915952275415521e-01  1.4403032634177851e-01  6.7243577694028200e-01  1.5219182703774073e-01  3.0437229621354883e-01  2.5719813863352431e-01  1.6519985890946753e-01  1.7866578777883838e-01  6.5336177885189206e-01  3.9258169908801144e-01  1.6640203358465450e-01  1.5933774890193908e-01  4.3465963332852403e-01  4.1204791440102118e-01  2.4090561026257853e-01  6.4760010527113598e-01  3.3801027503740905e-01  3.0003072500378009e-01  4.7846293357107444e-01  6.8847110023376612e-01  2.0264036632102683e-01  2.3219035959157186e-01  2.0404435068178514e-01  3.6367999904047676e-01  6.8641792830736292e-01  3.3308620292255170e-01  3.3386358571771374e-01  6.7774128201159756e-01  1.8254096501709169e-01  1.8397428510286304e-01  1.4283414792958909e-01  1.5381726081700658e-01  2.3515975001364070e-01  6.8744342725862106e-01  2.2482320764528779e-01  2.0616034448114906e-01  2.5550657975875651e-01  2.4285894623985577e-01  1.7988167265568872e-01  1.9782085726750653e-01  3.5262092110896648e-01  4.5017438081425570e-01  3.2967992729659945e-01  2.6693799585726141e-01  3.6835078183618314e-01  1.5074254340882304e-01  6.7036608638370809e-01  2.9314270570850548e-01  6.8194164025077997e-01  6.9560819928758610e-01  3.2216803730803217e-01  1.8674590749737308e-01  6.9296635518560556e-01  4.6201948920365504e-01  3.5536943043226116e-01  1.8856165092457908e-01  1.5915879927082680e-01  1.8002363018320267e-01  2.1749965236688762e-01  2.7264002840822288e-01  2.4501148383212396e-01  2.8887670392118969e-01  4.7667470864896361e-01  3.3155067399320237e-01  2.3527968701093821e-01  1.9898084045981815e-01  3.6882314536747929e-01  2.2172932252088806e-01  6.4111315852571193e-01  1.7641871295283004e-01  4.1083598943748773e-01  6.3129771010371172e-01  1.9231483105122402e-01  1.6873146936143660e-01  1.4247848012693307e-01  1.6758128841961667e-01  3.2266469264738190e-01  3.0386935734168846e-01  2.5856986971636148e-01  1.5200477423638384e-01  3.9424426389931994e-01  4.8183715350479905e-01  4.3511060815337338e-01  5.8418580999318148e-01  6.9032432515592501e-01  1.6908629026262034e-01  2.4199745289821770e-01  1.9335596708702427e-01  3.7124347879848418e-01  3.2727609709686367e-01  3.6175619130789927e-01  2.9485007557053639e-01  2.9795807640616595e-01  3.2141945493492768e-01  6.4157911040049276e-01  7.0025405139336994e-01  4.9605092623138630e-01  1.5813554361293913e-01  6.8812263915336669e-01  3.1845177438038597e-01  1.7079974277978135e-01  1.8474349827768946e-01  1.7373135505459580e-01  1.6081048340126855e-01  3.3149745099186756e-01  2.8247093616740082e-01  1.9134605645120806e-01  2.1206951913924493e-01  7.0085064177801049e-01  3.9866252854676559e-01  2.0627220578747060e-01  1.9153928251128041e-01  1.5382121074241428e-01  3.7436419473044058e-01  2.2970170817336355e-01  5.3552999187926609e-01  7.0598397104937494e-01  7.0623174244909126e-01  7.0208306883055693e-01  7.0636213101329393e-01  4.4001993077616830e-01  3.8281151631120430e-01  3.3436727228111041e-01  2.0137353361101082e-01  7.3557196201942987e-01  7.0060094737622114e-01  7.0478454167095117e-01  7.1306722723211624e-01  4.9663880209191519e-01  3.2427359583118415e-01  3.0835495333843421e-01  1.7421253047905055e-01  2.6417134114466179e-01  3.0982434448124618e-01  2.9258312297416378e-01  3.0596413820620688e-01  1.6815306685693787e-01  1.7917901570417810e-01  1.9559823704812607e-01  2.3159024825913754e-01  3.1195975275512650e-01  4.4181108581190282e-01  7.0571678238620072e-01  7.0279329148482050e-01  2.3437863660020633e-01  3.0560276057488361e-01  1.9887562642911277e-01  2.2589820448902725e-01  1.4832848595133588e-01  2.2258056288794964e-01  2.4539391095100463e-01  3.3657801103410068e-01  3.6871797514741189e-01  4.4461657516909664e-01  7.3690502120886481e-01  4.9043630087093265e-01  7.2402549954428563e-01  4.3875794398697371e-01  2.1754246212147094e-01  1.5391078961773602e-01  2.3870722207097098e-01  2.9661890648572314e-01  2.6798144775669097e-01  3.9264090475075908e-01  7.3317529200460529e-01  4.5293137908251391e-01  1.5294035822195773e-01  1.4912001496221450e-01  4.9214136136049097e-01  1.4977847266591446e-01  2.2977778427577727e-01  2.4701932293155551e-01  1.4327390612747234e-01  1.8958789358260475e-01  3.9098654365408458e-01  4.2623636397461723e-01  2.6189974412567257e-01  7.2482431878699138e-01  5.0698678849931589e-01  1.9924900842428331e-01  2.4958258219461538e-01  5.1037517246789321e-01  5.0946604875701673e-01  7.1721959340249186e-01  7.1749843728033791e-01  7.0962703987658571e-01  4.8147001968698205e-01  7.1120121514511603e-01  7.4045469727933066e-01  2.6467001936095136e-01  3.8078733850305746e-01  3.5365895583958029e-01  2.1507994185495083e-01  1.8936222347174464e-01  2.0319411340690996e-01  5.1338756857775958e-01  4.9911897148957923e-01  2.2188187798145781e-01  1.4556278284508856e-01  1.7005144300716662e-01  5.2840597308801740e-01  5.0385323657404713e-01  7.2404333282555344e-01  1.8938179742969105e-01  1.9465788684233429e-01  7.2189346362400830e-01  5.1761468947977507e-01  2.7317307170922844e-01  3.7831870133455359e-01  2.8123867972178385e-01  7.5939330256249105e-01  3.1437910558719456e-01  1.4710453296546477e-01  7.4935131063055749e-01  4.2864820652642915e-01  2.9028261290765173e-01  7.4896672789767116e-01  3.6225210824626397e-01  1.6114060894832050e-01  3.0900907799749366e-01  3.2873778316963886e-01  1.9520064057218323e-01  4.0585634833686107e-01  5.0052688082278618e-01  7.2820147058783069e-01  2.0061102687549801e-01  7.4806856939876065e-01  7.6156452215240711e-01  6.2968990278245607e-01  3.6171140702766030e-01  2.4085308064407945e-01  5.2186289646762973e-01  7.2733955405238004e-01  5.3538771589882483e-01  1.6340148054099413e-01  7.4517104956004998e-01  2.9378018150509427e-01  2.7701905572326824e-01  3.7702129343632512e-01  4.6718630340927891e-01  3.8014132136198170e-01  4.9746509687274704e-01  2.4744439925469666e-01  2.5650009446893762e-01  3.3734617122666227e-01  1.5563768981951950e-01  2.6453860890905750e-01  1.9448422989151704e-01  7.5684983275137740e-01  5.0587052445155722e-01  1.5249752698278568e-01  2.0619048845389404e-01  1.4808480016788245e-01  1.9662282988002111e-01  3.3197930824835753e-01  2.5677932906677975e-01  1.8730672739843737e-01  1.6927446804784788e-01  1.6848210103217057e-01  2.7903483037632626e-01  3.5995148725961346e-01  3.2167818499124640e-01  2.0574316207648286e-01  3.4374129872191733e-01  4.5827421814795660e-01  5.3041825675276177e-01  7.4681562614498920e-01  1.5661648937925987e-01  1.6629765013629536e-01  4.9240694611690283e-01  4.0160916063188856e-01  5.5405548696733509e-01  4.1202286224758994e-01  4.1472559325554315e-01  3.3119972361567357e-01  7.8160403024341329e-01  2.3060396537371000e-01  2.5002791687430126e-01  7.7367420296040990e-01  1.6924551271655672e-01  7.6943124928681039e-01  7.7764082692826064e-01  4.3147177783637403e-01  7.5994691096940847e-01  7.7663529575894352e-01  7.8173692094666380e-01  1.4587655348960060e-01  1.4205756253288784e-01  4.6674646372611683e-01  5.4454394375157922e-01  7.7902589033527825e-01  7.5783637900098666e-01  4.0615603460836419e-01  5.4493335349141625e-01  1.6910392106409439e-01  1.4635709672628910e-01  5.4671247407029588e-01  4.6345562242422611e-01  4.1478060273658052e-01  4.8940258305811990e-01  1.7580238582714100e-01  7.3872484856457743e-01  7.4367271362786114e-01  7.8391027551944814e-01  1.9573158493686443e-01  2.3162126193883084e-01  4.8434047118868068e-01  5.0385720165981718e-01  3.1400464382321325e-01  7.8545722039322763e-01  5.3384015007741881e-01  4.6555724862248798e-01  1.9806120903300964e-01  2.5693826413952742e-01  7.3378473422836343e-01  3.5962155927026385e-01  3.4396401796284481e-01  7.7002910540078906e-01  2.2031257939663501e-01  2.0177391892891247e-01  2.3191703843238873e-01  1.4605055039034573e-01  5.2808172623637728e-01  5.5621149931747771e-01  2.9040590614990619e-01  3.9720276159268508e-01  2.2297327150447394e-01  7.8503083262120643e-01  3.9390279547956986e-01  5.5424972751382862e-01  2.3809230858743352e-01  7.6058057642651211e-01  1.4715702612952158e-01  1.5349816689332624e-01  1.5996404391322577e-01  1.7329946525684436e-01  1.8499020036913702e-01  7.7622047159238805e-01  7.4386770491219700e-01  1.4187776928113724e-01  7.6336267561975535e-01  2.1853264794126079e-01  3.6732473298272500e-01  4.0701136287583939e-01  1.9737298316820331e-01  1.5435796721429162e-01  1.6032510366059258e-01  1.7011938049123929e-01  1.6455079774296835e-01  2.7611874162257466e-01  2.4756252457436201e-01  2.1896158628203555e-01  7.9029959491786894e-01  3.0724425303447422e-01  3.9741474189195852e-01  3.0606636262248887e-01  2.7272895352569104e-01  2.4161106951897532e-01  1.5120106878333014e-01  4.6687582882902173e-01  5.7728793920731036e-01  7.5857501096081781e-01  2.8490481779016491e-01  3.0619517656056489e-01  3.3759521931492720e-01  4.3239738835379871e-01  4.7125572314099612e-01  2.2949379713205492e-01  4.5921905874286778e-01  2.5127269602549152e-01  3.1077507855896352e-01  1.7326861830274848e-01  4.3707698646026866e-01  6.3471946808224278e-01  1.6676299897541372e-01  4.0295363727622407e-01  7.9942883176453339e-01  5.4069365705043737e-01  2.2049706202001954e-01  5.7536831441408109e-01  3.9488828527190756e-01  2.9783611754815897e-01  2.3464765668274826e-01  3.9688257275796646e-01  7.9885978846692074e-01  2.5615111695450127e-01  1.8443974502971425e-01  3.1982032437848312e-01  4.3401277252909931e-01  7.6183119808756394e-01  2.0458275167580628e-01  1.9279323288445754e-01  1.7937871086632293e-01  4.3513388264564540e-01  2.2414173471097804e-01  7.9945860275611380e-01  2.0890509357572171e-01  2.2645975049223752e-01  5.6784367417021464e-01  5.4116518587678364e-01  7.7069086908345630e-01  1.7988957613407899e-01  1.6913151260223233e-01  1.6123295409390329e-01  3.1128988355924758e-01  4.0374637408006714e-01  1.5931983621470641e-01  1.5866934118306897e-01  6.8266212563444684e-01  4.9804889065686886e-01  1.5574113067314785e-01  3.3736960211940253e-01  1.4184076169723564e-01  1.4454740172261782e-01  1.4711812797055196e-01  1.4486116364839208e-01  1.7219541861390961e-01  1.6871378022753403e-01  5.2734789530750958e-01  4.9087316011811316e-01  5.5129285581342813e-01  1.5977530555355995e-01  1.6548995485617346e-01  2.0731200622852028e-01  2.7133240593903263e-01  1.7131002412730104e-01  1.9403075867971079e-01  1.7939271075212737e-01  1.7675350169098694e-01  1.7365889537868798e-01  1.9187032799096146e-01  1.9311784882979491e-01  1.7762954793627059e-01  6.4598083754756785e-01  4.7149811526004931e-01  3.5904999856173608e-01  2.8855459372964531e-01  2.3073752401324105e-01  2.9280892359687988e-01  5.5525822711205930e-01  2.3506387632861420e-01  8.0939571076186179e-01  5.8887168632161013e-01  7.6471455578721048e-01  2.0980487593429070e-01  1.9610686731820468e-01  5.5076265528622048e-01  2.7251195413565138e-01  1.8914364918425391e-01  4.7463018147944475e-01  4.1757496174259345e-01  2.3618295270106551e-01  2.3226634014390929e-01  8.0672287354158712e-01  5.6098194102883492e-01  2.2039293695470119e-01  2.1222180489709902e-01  1.8909143935684763e-01  5.7774123232926144e-01  5.1180146849391528e-01  2.1300614429880801e-01  4.1424289471245807e-01  3.6104384442263115e-01  8.1595390127287082e-01  5.3433254338839975e-01  5.7402336379835672e-01  8.1710310537577724e-01  1.4537046768340953e-01  6.0064137755944436e-01  6.1570741927526917e-01  5.7368337820930426e-01  2.4303993839562102e-01  3.4933586333311756e-01  7.9873336966449826e-01  3.5624128921481929e-01  2.7182258902977624e-01  2.8996489549091048e-01  3.7210871986891209e-01  1.7414860756298736e-01  5.8108797376622756e-01  2.2746717705203490e-01  2.1655589296775005e-01  2.4497116518744369e-01  7.6795290919215942e-01  4.5490876145070164e-01  8.1844246346885896e-01  2.1432409511864375e-01  5.0862912126862037e-01  1.4762344229124080e-01  1.4799019915561801e-01  3.2381393165757555e-01  3.9236058186076750e-01  4.3750692