<?xml version="1.0"?>
<VTKFile type="UnstructuredGrid"  version="0.1"  >
<UnstructuredGrid>
<Piece  NumberOfPoints="961" NumberOfCells="1800">
<Points>
<DataArray  type="Float64"  NumberOfComponents="3"  format="ascii">0 0 0  0.03333333333333333 0 0  0.06666666666666667 0 0  0.1 0 0  0.1333333333333333 0 0  0.1666666666666667 0 0  0.2 0 0  0.2333333333333333 0 0  0.2666666666666667 0 0  0.3 0 0  0.3333333333333333 0 0  0.3666666666666666 0 0  0.4 0 0  0.4333333333333333 0 0  0.4666666666666667 0 0  0.5 0 0  0.5333333333333333 0 0  0.5666666666666667 0 0  0.6 0 0  0.6333333333333333 0 0  0.6666666666666666 0 0  0.7 0 0  0.7333333333333333 0 0  0.7666666666666667 0 0  0.8 0 0  0.8333333333333334 0 0  0.8666666666666667 0 0  0.9 0 0  0.9333333333333333 0 0  0.9666666666666667 0 0  1 0 0  0 0.03333333333333333 0  0.03333333333333333 0.03333333333333333 0  0.06666666666666667 0.03333333333333333 0  0.1 0.03333333333333333 0  0.1333333333333333 0.03333333333333333 0  0.1666666666666667 0.03333333333333333 0  0.2 0.03333333333333333 0  0.2333333333333333 0.03333333333333333 0  0.2666666666666667 0.03333333333333333 0  0.3 0.03333333333333333 0  0.3333333333333333 0.03333333333333333 0  0.3666666666666666 0.03333333333333333 0  0.4 0.03333333333333333 0  0.4333333333333333 0.03333333333333333 0  0.4666666666666667 0.03333333333333333 0  0.5 0.03333333333333333 0  0.5333333333333333 0.03333333333333333 0  0.5666666666666667 0.03333333333333333 0  0.6 0.03333333333333333 0  0.6333333333333333 0.03333333333333333 0  0.6666666666666666 0.03333333333333333 0  0.7 0.03333333333333333 0  0.7333333333333333 0.03333333333333333 0  0.7666666666666667 0.03333333333333333 0  0.8 0.03333333333333333 0  0.8333333333333334 0.03333333333333333 0  0.8666666666666667 0.03333333333333333 0  0.9 0.03333333333333333 0  0.9333333333333333 0.03333333333333333 0  0.9666666666666667 0.03333333333333333 0  1 0.03333333333333333 0  0 0.06666666666666667 0  0.03333333333333333 0.06666666666666667 0  0.06666666666666667 0.06666666666666667 0  0.1 0.06666666666666667 0  0.1333333333333333 0.06666666666666667 0  0.1666666666666667 0.06666666666666667 0  0.2 0.06666666666666667 0  0.2333333333333333 0.06666666666666667 0  0.2666666666666667 0.06666666666666667 0  0.3 0.06666666666666667 0  0.3333333333333333 0.06666666666666667 0  0.3666666666666666 0.06666666666666667 0  0.4 0.06666666666666667 0  0.4333333333333333 0.06666666666666667 0  0.4666666666666667 0.06666666666666667 0  0.5 0.06666666666666667 0  0.5333333333333333 0.06666666666666667 0  0.5666666666666667 0.06666666666666667 0  0.6 0.06666666666666667 0  0.6333333333333333 0.06666666666666667 0  0.6666666666666666 0.06666666666666667 0  0.7 0.06666666666666667 0  0.7333333333333333 0.06666666666666667 0  0.7666666666666667 0.06666666666666667 0  0.8 0.06666666666666667 0  0.8333333333333334 0.06666666666666667 0  0.8666666666666667 0.06666666666666667 0  0.9 0.06666666666666667 0  0.9333333333333333 0.06666666666666667 0  0.9666666666666667 0.06666666666666667 0  1 0.06666666666666667 0  0 0.1 0  0.03333333333333333 0.1 0  0.06666666666666667 0.1 0  0.1 0.1 0  0.1333333333333333 0.1 0  0.1666666666666667 0.1 0  0.2 0.1 0  0.2333333333333333 0.1 0  0.2666666666666667 0.1 0  0.3 0.1 0  0.3333333333333333 0.1 0  0.3666666666666666 0.1 0  0.4 0.1 0  0.4333333333333333 0.1 0  0.4666666666666667 0.1 0  0.5 0.1 0  0.5333333333333333 0.1 0  0.5666666666666667 0.1 0  0.6 0.1 0  0.6333333333333333 0.1 0  0.6666666666666666 0.1 0  0.7 0.1 0  0.7333333333333333 0.1 0  0.7666666666666667 0.1 0  0.8 0.1 0  0.8333333333333334 0.1 0  0.8666666666666667 0.1 0  0.9 0.1 0  0.9333333333333333 0.1 0  0.9666666666666667 0.1 0  1 0.1 0  0 0.1333333333333333 0  0.03333333333333333 0.1333333333333333 0  0.06666666666666667 0.1333333333333333 0  0.1 0.1333333333333333 0  0.1333333333333333 0.1333333333333333 0  0.1666666666666667 0.1333333333333333 0  0.2 0.1333333333333333 0  0.2333333333333333 0.1333333333333333 0  0.2666666666666667 0.1333333333333333 0  0.3 0.1333333333333333 0  0.3333333333333333 0.1333333333333333 0  0.3666666666666666 0.1333333333333333 0  0.4 0.1333333333333333 0  0.4333333333333333 0.1333333333333333 0  0.4666666666666667 0.1333333333333333 0  0.5 0.1333333333333333 0  0.5333333333333333 0.1333333333333333 0  0.5666666666666667 0.1333333333333333 0  0.6 0.1333333333333333 0  0.6333333333333333 0.1333333333333333 0  0.6666666666666666 0.1333333333333333 0  0.7 0.1333333333333333 0  0.7333333333333333 0.1333333333333333 0  0.7666666666666667 0.1333333333333333 0  0.8 0.1333333333333333 0  0.8333333333333334 0.1333333333333333 0  0.8666666666666667 0.1333333333333333 0  0.9 0.1333333333333333 0  0.9333333333333333 0.1333333333333333 0  0.9666666666666667 0.1333333333333333 0  1 0.1333333333333333 0  0 0.1666666666666667 0  0.03333333333333333 0.1666666666666667 0  0.06666666666666667 0.1666666666666667 0  0.1 0.1666666666666667 0  0.1333333333333333 0.1666666666666667 0  0.1666666666666667 0.1666666666666667 0  0.2 0.1666666666666667 0  0.2333333333333333 0.1666666666666667 0  0.2666666666666667 0.1666666666666667 0  0.3 0.1666666666666667 0  0.3333333333333333 0.1666666666666667 0  0.3666666666666666 0.1666666666666667 0  0.4 0.1666666666666667 0  0.4333333333333333 0.1666666666666667 0  0.4666666666666667 0.1666666666666667 0  0.5 0.1666666666666667 0  0.5333333333333333 0.1666666666666667 0  0.5666666666666667 0.1666666666666667 0  0.6 0.1666666666666667 0  0.6333333333333333 0.1666666666666667 0  0.6666666666666666 0.1666666666666667 0  0.7 0.1666666666666667 0  0.7333333333333333 0.1666666666666667 0  0.7666666666666667 0.1666666666666667 0  0.8 0.1666666666666667 0  0.8333333333333334 0.1666666666666667 0  0.8666666666666667 0.1666666666666667 0  0.9 0.1666666666666667 0  0.9333333333333333 0.1666666666666667 0  0.9666666666666667 0.1666666666666667 0  1 0.1666666666666667 0  0 0.2 0  0.03333333333333333 0.2 0  0.06666666666666667 0.2 0  0.1 0.2 0  0.1333333333333333 0.2 0  0.1666666666666667 0.2 0  0.2 0.2 0  0.2333333333333333 0.2 0  0.2666666666666667 0.2 0  0.3 0.2 0  0.3333333333333333 0.2 0  0.3666666666666666 0.2 0  0.4 0.2 0  0.4333333333333333 0.2 0  0.4666666666666667 0.2 0  0.5 0.2 0  0.5333333333333333 0.2 0  0.5666666666666667 0.2 0  0.6 0.2 0  0.6333333333333333 0.2 0  0.6666666666666666 0.2 0  0.7 0.2 0  0.7333333333333333 0.2 0  0.7666666666666667 0.2 0  0.8 0.2 0  0.8333333333333334 0.2 0  0.8666666666666667 0.2 0  0.9 0.2 0  0.9333333333333333 0.2 0  0.9666666666666667 0.2 0  1 0.2 0  0 0.2333333333333333 0  0.03333333333333333 0.2333333333333333 0  0.06666666666666667 0.2333333333333333 0  0.1 0.2333333333333333 0  0.1333333333333333 0.2333333333333333 0  0.1666666666666667 0.2333333333333333 0  0.2 0.2333333333333333 0  0.2333333333333333 0.2333333333333333 0  0.2666666666666667 0.2333333333333333 0  0.3 0.2333333333333333 0  0.3333333333333333 0.2333333333333333 0  0.3666666666666666 0.2333333333333333 0  0.4 0.2333333333333333 0  0.4333333333333333 0.2333333333333333 0  0.4666666666666667 0.2333333333333333 0  0.5 0.2333333333333333 0  0.5333333333333333 0.2333333333333333 0  0.5666666666666667 0.2333333333333333 0  0.6 0.2333333333333333 0  0.6333333333333333 0.2333333333333333 0  0.6666666666666666 0.2333333333333333 0  0.7 0.2333333333333333 0  0.7333333333333333 0.2333333333333333 0  0.7666666666666667 0.2333333333333333 0  0.8 0.2333333333333333 0  0.8333333333333334 0.2333333333333333 0  0.8666666666666667 0.2333333333333333 0  0.9 0.2333333333333333 0  0.9333333333333333 0.2333333333333333 0  0.9666666666666667 0.2333333333333333 0  1 0.2333333333333333 0  0 0.2666666666666667 0  0.03333333333333333 0.2666666666666667 0  0.06666666666666667 0.2666666666666667 0  0.1 0.2666666666666667 0  0.1333333333333333 0.2666666666666667 0  0.1666666666666667 0.2666666666666667 0  0.2 0.2666666666666667 0  0.2333333333333333 0.2666666666666667 0  0.2666666666666667 0.2666666666666667 0  0.3 0.2666666666666667 0  0.3333333333333333 0.2666666666666667 0  0.3666666666666666 0.2666666666666667 0  0.4 0.2666666666666667 0  0.4333333333333333 0.2666666666666667 0  0.4666666666666667 0.2666666666666667 0  0.5 0.2666666666666667 0  0.5333333333333333 0.2666666666666667 0  0.5666666666666667 0.2666666666666667 0  0.6 0.2666666666666667 0  0.6333333333333333 0.2666666666666667 0  0.6666666666666666 0.2666666666666667 0  0.7 0.2666666666666667 0  0.7333333333333333 0.2666666666666667 0  0.7666666666666667 0.2666666666666667 0  0.8 0.2666666666666667 0  0.8333333333333334 0.2666666666666667 0  0.8666666666666667 0.2666666666666667 0  0.9 0.2666666666666667 0  0.9333333333333333 0.2666666666666667 0  0.9666666666666667 0.2666666666666667 0  1 0.2666666666666667 0  0 0.3 0  0.03333333333333333 0.3 0  0.06666666666666667 0.3 0  0.1 0.3 0  0.1333333333333333 0.3 0  0.1666666666666667 0.3 0  0.2 0.3 0  0.2333333333333333 0.3 0  0.2666666666666667 0.3 0  0.3 0.3 0  0.3333333333333333 0.3 0  0.3666666666666666 0.3 0  0.4 0.3 0  0.4333333333333333 0.3 0  0.4666666666666667 0.3 0  0.5 0.3 0  0.5333333333333333 0.3 0  0.5666666666666667 0.3 0  0.6 0.3 0  0.6333333333333333 0.3 0  0.6666666666666666 0.3 0  0.7 0.3 0  0.7333333333333333 0.3 0  0.7666666666666667 0.3 0  0.8 0.3 0  0.8333333333333334 0.3 0  0.8666666666666667 0.3 0  0.9 0.3 0  0.9333333333333333 0.3 0  0.9666666666666667 0.3 0  1 0.3 0  0 0.3333333333333333 0  0.03333333333333333 0.3333333333333333 0  0.06666666666666667 0.3333333333333333 0  0.1 0.3333333333333333 0  0.1333333333333333 0.3333333333333333 0  0.1666666666666667 0.3333333333333333 0  0.2 0.3333333333333333 0  0.2333333333333333 0.3333333333333333 0  0.2666666666666667 0.3333333333333333 0  0.3 0.3333333333333333 0  0.3333333333333333 0.3333333333333333 0  0.3666666666666666 0.3333333333333333 0  0.4 0.3333333333333333 0  0.4333333333333333 0.3333333333333333 0  0.4666666666666667 0.3333333333333333 0  0.5 0.3333333333333333 0  0.5333333333333333 0.33333333333333
[...]
<PointData  Scalars="f_18-2"> 
<DataArray  type="Float64"  Name="f_18-2"  format="ascii">1.4980866180866684e-01  1.4980868680890105e-01  1.4980874255995588e-01  1.4980880989183137e-01  1.4980879895717919e-01  1.4980850747618371e-01  1.4980762154933155e-01  1.4980580177521122e-01  1.4980285651809899e-01  1.4979893289119683e-01  1.4979460415708992e-01  1.4979075762442126e-01  1.4978829653760345e-01  1.4978779395239811e-01  1.4978928017856835e-01  1.4979226933441897e-01  1.4979599012456632e-01  1.4979968211566894e-01  1.4980281376853730e-01  1.4980515432078428e-01  1.4980672085661748e-01  1.4980766906466905e-01  1.4980819142572371e-01  1.4980845444227514e-01  1.4980857582446508e-01  1.4980862725670810e-01  1.4980864728297769e-01  1.4980865444962899e-01  1.4980865680657079e-01  1.4980865751479519e-01  1.4980865763410908e-01  1.4980869405452946e-01  1.4980872235929663e-01  1.4980877803264672e-01  1.4980878260246694e-01  1.4980853294975277e-01  1.4980764817278089e-01  1.4980559885838371e-01  1.4980187420783861e-01  1.4979627267706491e-01  1.4978919133995486e-01  1.4978171964787301e-01  1.4977540099793407e-01  1.4977171075139742e-01  1.4977149361204964e-01  1.4977465453133687e-01  1.4978025508048337e-01  1.4978693297221496e-01  1.4979340257193846e-01  1.4979880216689942e-01  1.4980278925320187e-01  1.4980543248641143e-01  1.4980702001217111e-01  1.4980788890601399e-01  1.4980832398557373e-01  1.4980852379812754e-01  1.4980860808694318e-01  1.4980864076664796e-01  1.4980865241062921e-01  1.4980865622157602e-01  1.4980865735950979e-01  1.4980865757246756e-01  1.4980878994375241e-01  1.4980881323067841e-01  1.4980879484692566e-01  1.4980841294759670e-01  1.4980699947831078e-01  1.4980345805027759e-01  1.4979641345154379e-01  1.4978470267560792e-01  1.4976812990045957e-01  1.4974814129718103e-01  1.4972793434147030e-01  1.4971170312359949e-01  1.4970321199960690e-01  1.4970436546203311e-01  1.4971452161962118e-01  1.4973088336707974e-01  1.4974968704610345e-01  1.4976752582864486e-01  1.4978221103740405e-01  1.4979295436955628e-01  1.4980003436601164e-01  1.4980427342826094e-01  1.4980659246894446e-01  1.4980775607330538e-01  1.4980829292277020e-01  1.4980852101687084e-01  1.4980861032878307e-01  1.4980864255991824e-01  1.4980865327618331e-01  1.4980865653063402e-01  1.4980865716108735e-01  1.4980894498907810e-01  1.4980885387756740e-01  1.4980833744967903e-01  1.4980633853206160e-01  1.4980086373725446e-01  1.4978887900785179e-01  1.4976682761598545e-01  1.4973200547952428e-01  1.4968453398631756e-01  1.4962899958571027e-01  1.4957450828164098e-01  1.4953245003227439e-01  1.4951259325350361e-01  1.4951935557982163e-01  1.4955021566637425e-01  1.4959704037180022e-01  1.4964944367834918e-01  1.4969833698492049e-01  1.4973810745613281e-01  1.4976694109185276e-01  1.4978581514728659e-01  1.4979706207341797e-01  1.4980319673319401e-01  1.4980627097496974e-01  1.4980768977408468e-01  1.4980829366369250e-01  1.4980853086749224e-01  1.4980861684788632e-01  1.4980864558813090e-01  1.4980865435542995e-01  1.4980865608785396e-01  1.4980894699986019e-01  1.4980835165975087e-01  1.4980593796579952e-01  1.4979872897421384e-01  1.4978138613648870e-01  1.4974615091724039e-01  1.4968432901513487e-01  1.4958983668382003e-01  1.4946410887805256e-01  1.4932001267179237e-01  1.4918162489127856e-01  1.4907817458858760e-01  1.4903389767863137e-01  1.4905866843686433e-01  1.4914442012725457e-01  1.4926912115323657e-01  1.4940574917587690e-01  1.4953137190113749e-01  1.4963239092935171e-01  1.4970495216785007e-01  1.4975209578917920e-01  1.4978002590935752e-01  1.4979519634088989e-01  1.4980277788771079e-01  1.4980627209055575e-01  1.4980775917124184e-01  1.4980834387542316e-01  1.4980855623905165e-01  1.4980862741614248e-01  1.4980864917208803e-01  1.4980865353728093e-01  1.4980798336218495e-01  1.4980584255610643e-01  1.4979787571441386e-01  1.4977662651592172e-01  1.4972905759167954e-01  1.4963671315078833e-01  1.4947943279100404e-01  1.4924383085204893e-01  1.4893494289304246e-01  1.4858542963873125e-01  1.4825466602192344e-01  1.4801353592119471e-01  1.4791941125996791e-01  1.4799355149172438e-01  1.4821325583995035e-01  1.4852271591526642e-01  1.4885569840508422e-01  1.4915764405086132e-01  1.4939761679285737e-01  1.4956825533242604e-01  1.4967818252881074e-01  1.4974286193192227e-01  1.4977780712566488e-01  1.4979520468396818e-01  1.4980320315365026e-01  1.4980660287601819e-01  1.4980793931301647e-01  1.4980842502155137e-01  1.4980858801474017e-01  1.4980863786945667e-01  1.4980864799647858e-01  1.4980400772042216e-01  1.4979801529445996e-01  1.4977643212792893e-01  1.4972231742711367e-01  1.4960631864482918e-01  1.4938731015516774e-01  1.4902067717079345e-01  1.4847724700027240e-01  1.4776978221301809e-01  1.4697436438289874e-01  1.4622834207458016e-01  1.4569454681651053e-01  1.4550262961078092e-01  1.4569690696891868e-01  1.4621959933460035e-01  1.4693803005916214e-01  1.4769884007207981e-01  1.4837931989144276e-01  1.4891334114057200e-01  1.4928874761875052e-01  1.4952819318820959e-01  1.4966791855987066e-01  1.4974291518400604e-01  1.4978006669158653e-01  1.4979708592084134e-01  1.4980430269031697e-01  1.4980713567176035e-01  1.4980816463671989e-01  1.4980850987229202e-01  1.4980861540144022e-01  1.4980863704597566e-01  1.4979306394782355e-01  1.4977884773478270e-01  1.4972829952028796e-01  1.4960611961412601e-01  1.4935099930033111e-01  1.4887678731048368e-01  1.4808912509804778e-01  1.4692515797181055e-01  1.4541143985467536e-01  1.4371240407569980e-01  1.4212659998397706e-01  1.4100676824887784e-01  1.4063025334582660e-01  1.4108631049155546e-01  1.4224176710326014e-01  1.4380226288726863e-01  1.4543291113534904e-01  1.4687211625250904e-01  1.4798636008572574e-01  1.4875949940883951e-01  1.4924688379642131e-01  1.4952848187743029e-01  1.4967841997125905e-01  1.4975223227393308e-01  1.4978588586564434e-01  1.4980010611593608e-01  1.4980567401141870e-01  1.4980769245670039e-01  1.4980836858249641e-01  1.4980857482811147e-01  1.4980861743522464e-01  1.4976909784482265e-01  1.4973950101736538e-01  1.4963464646696090e-01  1.4938670135570162e-01  1.4887660162623989e-01  1.4793485682009644e-01  1.4637198394620415e-01  1.4405747216488005e-01  1.4104111905406119e-01  1.3765666778382896e-01  1.3451082668107728e-01  1.3231140625383220e-01  1.3160501309639544e-01  1.3256156711342909e-01  1.3491068099797018e-01  1.3805705973682916e-01  1.4131928634069524e-01  1.4416822340026117e-01  1.4634511321583177e-01  1.4783445689959371e-01  1.4876086606788991e-01  1.4928994454847000e-01  1.4956898799188098e-01  1.4970532504819467e-01  1.4976712034619324e-01  1.4979311110876967e-01  1.4980324971434614e-01  1.4980691333319551e-01  1.4980813675539228e-01  1.4980850860843650e-01  1.4980858579825312e-01  1.4972500316301235e-01  1.4966998494540038e-01  1.4947485744047115e-01  1.4901924497272551e-01  1.4808853685867923e-01  1.4637157359512953e-01  1.4351280203656822e-01  1.3926313717870586e-01  1.3372167311618199e-01  1.2753337284448160e-01  1.2183485668031942e-01  1.1789592143554427e-01  1.1665779289533210e-01  1.1840911227639261e-01  1.2269494546385698e-01  1.2847036399290171e-01  1.3447999266358882e-01  1.3971349545816700e-01  1.4367560109304742e-01  1.4635084037335441e-01  1.4799166373518952e-01  1.4891677888145441e-01  1.4939946863856365e-01  1.4963326841306263e-01  1.4973850680261414e-01  1.4978251941474288e-01  1.4979960482791874e-01  1.4980575099328605e-01  1.4980779399019165e-01  1.4980841170081718e-01  1.4980854024695367e-01  1.4965537420590280e-01  1.4956320071245296e-01  1.4923516574299328e-01  1.4847437134643096e-01  1.4692367143553559e-01  1.4405585432880885e-01  1.3926136828960939e-01  1.3212773960078136e-01  1.2288901979622520e-01  1.1273671827747117e-01  1.0359037085918278e-01  9.7390603631277925e-02  9.5447056643503989e-02  9.8153579420781872e-02  1.0493376763972793e-01  1.1431090995052502e-01  1.2428761906810287e-01  1.3307922429833252e-01  1.3973464678499500e-01  1.4418903467146216e-01  1.4688634132522413e-01  1.4838739823858851e-01  1.4916167690574358e-01  1.4953319017348266e-01  1.4969912901362278e-01  1.4976807517508439e-01  1.4979468228389842e-01  1.4980419860801278e-01  1.4980734232895049e-01  1.4980828616370387e-01  1.4980848260952540e-01  1.4956044941386509e-01  1.4942057045281659e-01  1.4892054614337874e-01  1.4776470208805195e-01  1.4540821416697686e-01  1.4103670063111914e-01  1.3371515408181314e-01  1.2288246911099106e-01  1.0910885585238833e-01  9.4450933099099535e-02  8.1757326852862230e-02  7.3438006966035307e-02  7.0823661381924280e-02  7.4277217790734346e-02  8.3328950462257648e-02  9.6457241185533379e-02  1.1106681519052815e-01  1.2435260263624703e-01  1.3455068920975793e-01  1.4137109354725430e-01  1.4546396742737508e-01  1.4771514348511020e-01  1.4886341810209544e-01  1.4940909951419726e-01  1.4965085029273689e-01  1.4975057490576438e-01  1.4978879777971379e-01  1.4980237255829171e-01  1.4980682178437627e-01  1.4980814544716364e-01  1.4980842032256902e-01  1.4944938956177090e-01  1.4925656157902378e-01  1.4856414640912086e-01  1.4696635698718974e-01  1.4370631835607123e-01  1.3764709538281572e-01  1.2751756070825485e-01  1.1271625065147306e-01  9.4434284178535888e-02  7.5854365600745419e-02  6.0632489318347201e-02  5.1128897084194061e-02  4.8158256468256153e-02  5.1841681715875977e-02  6.2063242288777944e-02  7.7864217817799009e-02  9.6602536289395496e-02  1.1450120982180417e-01  1.2862931184786786e-01  1.3816082021216858e-01  1.4386006041782728e-01  1.4696680669082496e-01  1.4853581184922018e-01  1.4927463244874017e-01  1.4959928187971283e-01  1.4973218498818419e-01  1.4978273481270521e-01  1.4980053766327336e-01  1.4980631594510180e-01  1.4980801527476326e-01  1.4980836641065970e-01  1.4934039095294604e-01  1.4909850872383365e-01  1.4822642603617200e-01  1.4621700137185026e-01  1.4211655870192222e-01  1.3449357037583973e-01  1.2180478985701297e-01  1.0354811851463630e-01  8.1714084279239971e-02  6.0605076685735136e-02  4.4331111553390722e-02  3.4723253278159193e-02  3.1767256990331887e-02  3.5230996614017809e-02  4.5417047970021662e-02  6.2270757245796164e-02  8.3682140013889725e-02  1.0530318771001597e-01  1.2297841760652890e-01  1.3508582487760404e-01  1.4233504954160200e-01  1.4626433580276110e-01  1.4823300043274429e-01  1.4915252097175544e-01  1.4955342008999817e-01  1.4971624930666336e-01  1.4977765599012210e-01  1.4979907026454847e-01  1.4980593785140187e-01  1.4980792836288975e-01  1.4980833632508150e-01  1.4925622349832907e-01  1.4897976880519817e-01  1.4797971329763859e-01  1.4568006313593573e-01  1.4099219986180056e-01  1.3228480172671200e-01  1.1784804847218015e-01  9.7320572816316286e-02  7.3360517189416774e-02  5.1066789501402594e-02  3.4690621948785999e-02  2.5465549916297864e-02  2.2672415586859923e-02  2.5792973765032454e-02  3.5425640870463793e-02  5.2264210588447324e-02  7.4858784425348032e-02  9.8724547029966511e-02  1.1883281349438303e-01  1.3281578845138700e-01  1.4121784326926123e-01  1.4575830539391355e-01  1.4802001260049164e-01  1.4906929852045087e-01  1.4952345857160670e-01  1.4970643520872887e-01  1.4977478872638458e-01  1.4979834947142337e-01  1.4980579462992846e-01  1.4980791309583760e-01  1.4980834202505108e-01  1.4921642869383639e-01  1.4892816569388043e-01  1.4788270487609934e-01  1.4548591884888992e-01  1.4061157255682305e-01  1.3156930357959087e-01  1.1659168648862114e-01  9.5346653278657170e-02  7.0705792330887321e-02  4.8052738062061139e-02  3.1693744001895167e-02  2.2634417862718723e-02  1.9887737348641570e-02  2.2824090066246881e-02  3.2135016089804090e-02  4.8783726473509925e-02  7.1618080765412651e-02  9.6199375351243510e-02  1.1720336654958943e-01  1.3192568845605931e-01  1.4079280799727237e-01  1.4557702970166372e-01  1.4795089517611495e-01  1.4904632692969313e-01  1.4951728642482162e-01  1.4970544026124705e-01  1.4977497583811369e-01  1.4979861111026907e-01  1.4980594331259695e-01  1.4980798061160747e-01  1.4980838587503714e-01  1.4922986263207366e-01  1.4895524818718875e-01  1.4795735788405734e-01  1.4567947591578406e-01  1.4106505935143121e-01  1.3251941893724281e-01  1.1832864708205301e-01  9.8025364581899851e-02  7.4115159703386418e-02  5.1679813800651515e-02  3.5097361081870532e-02  2.5696400326915080e-02  2.2767287329856559e-02  2.5769601701746751e-02  3.5270533549253462e-02  5.1944837503717353e-02  7.4399404361550084e-02  9.8260398654596501e-02  1.1850878773874149e-01  1.3266453060050612e-01  1.4118296185585807e-01  1.4577406192518502e-01  1.4804673014956909e-01  1.4909109177801735e-01  1.4953722976537126e-01  1.4971384705688798e-01  1.4977830142542356e-01  1.4979983562811222e-01  1.4980636059622754e-01  1.4980811747254830e-01  1.4980845803125070e-01  1.4929151078137390e-01  1.4905209450556070e-01  1.4818077042088240e-01  1.4620315921256893e-01  1.4222027286529135e-01  1.3486677349297935e-01  1.2260843360559165e-01  1.0478801579707411e-01  8.3127724656775079e-02  6.1836135188609767e-02  4.5198523087264374e-02  3.5234942863930405e-02  3.1981675991793239e-02  3.5174145994829070e-02  4.5064570833208251e-02  6.1598367781273033e-02  8.2797218655325688e-02  1.0447587689315409e-01  1.2243637000605559e-01  1.3485036794628416e-01  1.4229398166283644e-01  1.4630319160180491e-01  1.4828561564651660e-01  1.4919352382943291e-01  1.4957882546839260e-01  1.4972976494838311e-01  1.4978400703596823e-01  1.4980173743003744e-01  1.4980694608185272e-01  1.4980828926246570e-01  1.4980853960860091e-01  1.4938512824441549e-01  1.4919373639603695e-01  1.4849614105604367e-01  1.4692401182201875e-01  1.4378290389670567e-01  1.3801666376221930e-01  1.2838862827250347e-01  1.1416577357244839e-01  9.6238675913655633e-02  7.7586498056202838e-02  6.1964624163601052e-02  5.1958379951788626e-02  4.8501362369455042e-02  5.1716239108682456e-02  6.1467270969613172e-02  7.6861763429852792e-02  9.5436539187329611e-02  1.1352234266601437e-01  1.2804702281612740e-01  1.3794140192005364e-01  1.4385171959811818e-01  1.4703637975166489e-01  1.4861090935871693e-01  1.4932970127113510e-01  1.4963244180964028e-01  1.4974951551222368e-01  1.4979076898180055e-01  1.4980387115923299e-01  1.4980756065661471e-01  1.4980845428227399e-01  1.4980861047878191e-01  1.4948994775267521e-01  1.4934934870302127e-01  1.4883586668443782e-01  1.4768803090496230e-01  1.4541734653523766e-01  1.4128640651204355e-01  1.3441237696516681e-01  1.2416286960748628e-01  1.1086566594928848e-01  9.6321364787015418e-02  8.3337236680079960e-02  7.4478889036301330e-02  7.1238505264171789e-02  7.4064372483985813e-02  8.2556856170469595e-02  9.5323298270378581e-02  1.0990768949713417e-01  1.2348965239643993e-01  1.3410218605513682e-01  1.4124956081660286e-01  1.4551320769551326e-01  1.4781504419324387e-01  1.4895344940952682e-01  1.4947106178403860e-01  1.4968694246787762e-01  1.4976902458555436e-01  1.4979720003810140e-01  1.4980580184187503e-01  1.4980808041734092e-01  1.4980858009864509e-01  1.4980865743682129e-01  1.4958778070602763e-01  1.4949264709577045e-01  1.4914413603596258e-01  1.4837177557370246e-01  1.4686089513844133e-01  1.4414441390981364e-01  1.3966432070763798e-01  1.3298675432592655e-01  1.2419729174634897e-01  1.1427036360265741e-01  1.0499923620207892e-01  9.8367567478176085e-02  9.5825234110724591e-02  9.7916899513616595e-02  1.0421168787290540e-01  1.1336534647370719e-01  1.2343010905166683e-01  1.3252277561023390e-01  1.3950857693838167e-01  1.4419138866882394e-01  1.4699068873314716e-01  1.4850641059308461e-01  1.4925568313045032e-01  1.4959421739671019e-01  1.4973347134896065e-01  1.4978519646447974e-01  1.4980231473998587e-01  1.4980724993358388e-01  1.4980843756281953e-01  1.4980865396666512e-01  1.4980867819474497e-01  1.4966738247116776e-01  1.4960796059023729e-01  1.4938921785038997e-01  1.4890856732362953e-01  1.4797906066598526e-01  1.4632963162482790e-01  1.4364378512276282e-01  1.3967468422924431e-01  1.3444844527699010e-01  1.2847293661372577e-01  1.2276490705958730e-01  1.1857321838910456e-01  1.1692400246015898e-01  1.1824681308938309e-01  1.2222816687073886e-01  1.2791236660375666e-01  1.3403568240404434e-01  1.3948735961381115e-01  1.4365216023282901e-01  1.4644816889204082e-01  1.4812653903351286e-01  1.4903730320854552e-01  1.4948611398013126e-01  1.4968673571743901e-01  1.4976759184620103e-01  1.4979663410234370e-01  1.4980574404818511e-01  1.4980814481445920e-01  1.4980862968011605e-01  1.4980868250991608e-01  1.4980867954199342e-01  1.4972510813251391e-01  1.4969077969696742e-01  1.4956349049535103e-01  1.4928600447288090e-01  1.4875518625398720e-01  1.4782532448298932e-01  1.4633225353815799e-01  1.4415428041713330e-01  1.4131195052562484e-01  1.3806987573635365e-01  1.3496028457466674e-01  1.3266122841124273e-01  1.3175746600714369e-01  1.3250485567785555e-01  1.3472066401332641e-01  1.3785328157479323e-01  1.4120086686580841e-01  1.4417053277153064e-01  1.4644225028134925e-01  1.4797360981751723e-01  1.4889582129269283e-01  1.4939569758713556e-01  1.4964000956503670e-01  1.4974728769266007e-01  1.4978920971390614e-01  1.4980352846245834e-01  1.4980765600596765e-01  1.4980858120072893e-01  1.4980869951988957e-01  1.4980868300099470e-01  1.4980867177394627e-01  1.4976290249984947e-01  1.4974453375558974e-01  1.4967571979458935e-01  1.4952676024762379e-01  1.4924455535014136e-01  1.4875593644512758e-01  1.4798173435752870e-01  1.4686798829989042e-01  1.4543303708165811e-01  1.4381280143968367e-01  1.4227000322589251e-01  1.4113777986588277e-01  1.4070546928038541e-01  1.4109948450168353e-01  1.4222501229767498e-01  1.4380315413205463e-01  1.4548447489378713e-01  1.4697667686057289e-01  1.4812115087551159e-01  1.4889443035240368e-01  1.4935966836826947e-01  1.4961005137010400e-01  1.4973046128696613e-01  1.4978183255387317e-01  1.4980097288272690e-01  1.4980700647809689e-01  1.4980850141019444e-01  1.4980872563957603e-01  1.4980870301772795e-01  1.4980867287301686e-01  1.4980866327940556e-01  1.4978542802892997e-01  1.4977631655580054e-01  1.4974170577467100e-01  1.4966723814861793e-01  1.4952732857530976e-01  1.4928749522242987e-01  1.4891188844379183e-01  1.4837845892696172e-01  1.4770024453606043e-01  1.4694426637545294e-01  1.4623355560525703e-01  1.4572062008329012e-01  1.4553599250877242e-01  1.4573468678503984e-01  1.4627023611343967e-01  1.4701255161545709e-01  1.4780029100808073e-01  1.4849866709983703e-01  1.4903392302265359e-01  1.4939453016423093e-01  1.4960978258238961e-01  1.4972379831618043e-01  1.4977712657389883e-01  1.4979885806081028e-01  1.4980635492674027e-01  1.4980840229562320e-01  1.4980875504241428e-01  1.4980873200835634e-01  1.4980868447110851e-01  1.4980866322960096e-01  1.4980865804930099e-01  1.4979771655910515e-01  1.4979352600946644e-01  1.4977731685264903e-01  1.4974262201083779e-01  1.4967789446549634e-01  1.4956786408446190e-01  1.4939723860160703e-01  1.4915763696362905e-01  1.4885674924095416e-01  1.4852581645548169e-01  1.4821946325240984e-01  1.4800354236669455e-01  1.4793301643709461e-01  1.4802954732793983e-01  1.4827111128541695e-01  1.4860023672976058e-01  1.4894665065006457e-01  1.4925196185524955e-01  1.4948438537365291e-01  1.4963934559249784e-01  1.4973026308849210e-01  1.4977708862555350e-01  1.4979802275024703e-01  1.4980593765817724e-01  1.4980831676553663e-01  1.4980878090256927e-01  1.4980876347395647e-01  1.4980869952684894e-01  1.4980866747467117e-01  1.4980865797101395e-01  1.4980865629115445e-01  1.4980387556409205e-01  1.4980208934619418e-01  1.4979501877992235e-01  1.4977995242824649e-01  1.4975201118136844e-01  1.4970484652151017e-01  1.4963232195573245e-01  1.4953148631948873e-01  1.4940630772074762e-01  1.4927048059009393e-01  1.4914693973831281e-01  1.4906255080136097e-01  1.4903903307409933e-01  1.4908408909725721e-01  1.4918759353109945e-01  1.4932530146339681e-01  1.4946822130538462e-01  1.4959263434547274e-01  1.4968598332230770e-01  1.4974698951559764e-01  1.4978173842856421e-01  1.4979883677342884e-01  1.4980593518794766e-01  1.4980828257599