<?xml version="1.0"?>
<VTKFile type="UnstructuredGrid"  version="0.1"  >
<UnstructuredGrid>
<Piece  NumberOfPoints="961" NumberOfCells="1800">
<Points>
<DataArray  type="Float64"  NumberOfComponents="3"  format="ascii">0 0 0  0.03333333333333333 0 0  0.06666666666666667 0 0  0.1 0 0  0.1333333333333333 0 0  0.1666666666666667 0 0  0.2 0 0  0.2333333333333333 0 0  0.2666666666666667 0 0  0.3 0 0  0.3333333333333333 0 0  0.3666666666666666 0 0  0.4 0 0  0.4333333333333333 0 0  0.4666666666666667 0 0  0.5 0 0  0.5333333333333333 0 0  0.5666666666666667 0 0  0.6 0 0  0.6333333333333333 0 0  0.6666666666666666 0 0  0.7 0 0  0.7333333333333333 0 0  0.7666666666666667 0 0  0.8 0 0  0.8333333333333334 0 0  0.8666666666666667 0 0  0.9 0 0  0.9333333333333333 0 0  0.9666666666666667 0 0  1 0 0  0 0.03333333333333333 0  0.03333333333333333 0.03333333333333333 0  0.06666666666666667 0.03333333333333333 0  0.1 0.03333333333333333 0  0.1333333333333333 0.03333333333333333 0  0.1666666666666667 0.03333333333333333 0  0.2 0.03333333333333333 0  0.2333333333333333 0.03333333333333333 0  0.2666666666666667 0.03333333333333333 0  0.3 0.03333333333333333 0  0.3333333333333333 0.03333333333333333 0  0.3666666666666666 0.03333333333333333 0  0.4 0.03333333333333333 0  0.4333333333333333 0.03333333333333333 0  0.4666666666666667 0.03333333333333333 0  0.5 0.03333333333333333 0  0.5333333333333333 0.03333333333333333 0  0.5666666666666667 0.03333333333333333 0  0.6 0.03333333333333333 0  0.6333333333333333 0.03333333333333333 0  0.6666666666666666 0.03333333333333333 0  0.7 0.03333333333333333 0  0.7333333333333333 0.03333333333333333 0  0.7666666666666667 0.03333333333333333 0  0.8 0.03333333333333333 0  0.8333333333333334 0.03333333333333333 0  0.8666666666666667 0.03333333333333333 0  0.9 0.03333333333333333 0  0.9333333333333333 0.03333333333333333 0  0.9666666666666667 0.03333333333333333 0  1 0.03333333333333333 0  0 0.06666666666666667 0  0.03333333333333333 0.06666666666666667 0  0.06666666666666667 0.06666666666666667 0  0.1 0.06666666666666667 0  0.1333333333333333 0.06666666666666667 0  0.1666666666666667 0.06666666666666667 0  0.2 0.06666666666666667 0  0.2333333333333333 0.06666666666666667 0  0.2666666666666667 0.06666666666666667 0  0.3 0.06666666666666667 0  0.3333333333333333 0.06666666666666667 0  0.3666666666666666 0.06666666666666667 0  0.4 0.06666666666666667 0  0.4333333333333333 0.06666666666666667 0  0.4666666666666667 0.06666666666666667 0  0.5 0.06666666666666667 0  0.5333333333333333 0.06666666666666667 0  0.5666666666666667 0.06666666666666667 0  0.6 0.06666666666666667 0  0.6333333333333333 0.06666666666666667 0  0.6666666666666666 0.06666666666666667 0  0.7 0.06666666666666667 0  0.7333333333333333 0.06666666666666667 0  0.7666666666666667 0.06666666666666667 0  0.8 0.06666666666666667 0  0.8333333333333334 0.06666666666666667 0  0.8666666666666667 0.06666666666666667 0  0.9 0.06666666666666667 0  0.9333333333333333 0.06666666666666667 0  0.9666666666666667 0.06666666666666667 0  1 0.06666666666666667 0  0 0.1 0  0.03333333333333333 0.1 0  0.06666666666666667 0.1 0  0.1 0.1 0  0.1333333333333333 0.1 0  0.1666666666666667 0.1 0  0.2 0.1 0  0.2333333333333333 0.1 0  0.2666666666666667 0.1 0  0.3 0.1 0  0.3333333333333333 0.1 0  0.3666666666666666 0.1 0  0.4 0.1 0  0.4333333333333333 0.1 0  0.4666666666666667 0.1 0  0.5 0.1 0  0.5333333333333333 0.1 0  0.5666666666666667 0.1 0  0.6 0.1 0  0.6333333333333333 0.1 0  0.6666666666666666 0.1 0  0.7 0.1 0  0.7333333333333333 0.1 0  0.7666666666666667 0.1 0  0.8 0.1 0  0.8333333333333334 0.1 0  0.8666666666666667 0.1 0  0.9 0.1 0  0.9333333333333333 0.1 0  0.9666666666666667 0.1 0  1 0.1 0  0 0.1333333333333333 0  0.03333333333333333 0.1333333333333333 0  0.06666666666666667 0.1333333333333333 0  0.1 0.1333333333333333 0  0.1333333333333333 0.1333333333333333 0  0.1666666666666667 0.1333333333333333 0  0.2 0.1333333333333333 0  0.2333333333333333 0.1333333333333333 0  0.2666666666666667 0.1333333333333333 0  0.3 0.1333333333333333 0  0.3333333333333333 0.1333333333333333 0  0.3666666666666666 0.1333333333333333 0  0.4 0.1333333333333333 0  0.4333333333333333 0.1333333333333333 0  0.4666666666666667 0.1333333333333333 0  0.5 0.1333333333333333 0  0.5333333333333333 0.1333333333333333 0  0.5666666666666667 0.1333333333333333 0  0.6 0.1333333333333333 0  0.6333333333333333 0.1333333333333333 0  0.6666666666666666 0.1333333333333333 0  0.7 0.1333333333333333 0  0.7333333333333333 0.1333333333333333 0  0.7666666666666667 0.1333333333333333 0  0.8 0.1333333333333333 0  0.8333333333333334 0.1333333333333333 0  0.8666666666666667 0.1333333333333333 0  0.9 0.1333333333333333 0  0.9333333333333333 0.1333333333333333 0  0.9666666666666667 0.1333333333333333 0  1 0.1333333333333333 0  0 0.1666666666666667 0  0.03333333333333333 0.1666666666666667 0  0.06666666666666667 0.1666666666666667 0  0.1 0.1666666666666667 0  0.1333333333333333 0.1666666666666667 0  0.1666666666666667 0.1666666666666667 0  0.2 0.1666666666666667 0  0.2333333333333333 0.1666666666666667 0  0.2666666666666667 0.1666666666666667 0  0.3 0.1666666666666667 0  0.3333333333333333 0.1666666666666667 0  0.3666666666666666 0.1666666666666667 0  0.4 0.1666666666666667 0  0.4333333333333333 0.1666666666666667 0  0.4666666666666667 0.1666666666666667 0  0.5 0.1666666666666667 0  0.5333333333333333 0.1666666666666667 0  0.5666666666666667 0.1666666666666667 0  0.6 0.1666666666666667 0  0.6333333333333333 0.1666666666666667 0  0.6666666666666666 0.1666666666666667 0  0.7 0.1666666666666667 0  0.7333333333333333 0.1666666666666667 0  0.7666666666666667 0.1666666666666667 0  0.8 0.1666666666666667 0  0.8333333333333334 0.1666666666666667 0  0.8666666666666667 0.1666666666666667 0  0.9 0.1666666666666667 0  0.9333333333333333 0.1666666666666667 0  0.9666666666666667 0.1666666666666667 0  1 0.1666666666666667 0  0 0.2 0  0.03333333333333333 0.2 0  0.06666666666666667 0.2 0  0.1 0.2 0  0.1333333333333333 0.2 0  0.1666666666666667 0.2 0  0.2 0.2 0  0.2333333333333333 0.2 0  0.2666666666666667 0.2 0  0.3 0.2 0  0.3333333333333333 0.2 0  0.3666666666666666 0.2 0  0.4 0.2 0  0.4333333333333333 0.2 0  0.4666666666666667 0.2 0  0.5 0.2 0  0.5333333333333333 0.2 0  0.5666666666666667 0.2 0  0.6 0.2 0  0.6333333333333333 0.2 0  0.6666666666666666 0.2 0  0.7 0.2 0  0.7333333333333333 0.2 0  0.7666666666666667 0.2 0  0.8 0.2 0  0.8333333333333334 0.2 0  0.8666666666666667 0.2 0  0.9 0.2 0  0.9333333333333333 0.2 0  0.9666666666666667 0.2 0  1 0.2 0  0 0.2333333333333333 0  0.03333333333333333 0.2333333333333333 0  0.06666666666666667 0.2333333333333333 0  0.1 0.2333333333333333 0  0.1333333333333333 0.2333333333333333 0  0.1666666666666667 0.2333333333333333 0  0.2 0.2333333333333333 0  0.2333333333333333 0.2333333333333333 0  0.2666666666666667 0.2333333333333333 0  0.3 0.2333333333333333 0  0.3333333333333333 0.2333333333333333 0  0.3666666666666666 0.2333333333333333 0  0.4 0.2333333333333333 0  0.4333333333333333 0.2333333333333333 0  0.4666666666666667 0.2333333333333333 0  0.5 0.2333333333333333 0  0.5333333333333333 0.2333333333333333 0  0.5666666666666667 0.2333333333333333 0  0.6 0.2333333333333333 0  0.6333333333333333 0.2333333333333333 0  0.6666666666666666 0.2333333333333333 0  0.7 0.2333333333333333 0  0.7333333333333333 0.2333333333333333 0  0.7666666666666667 0.2333333333333333 0  0.8 0.2333333333333333 0  0.8333333333333334 0.2333333333333333 0  0.8666666666666667 0.2333333333333333 0  0.9 0.2333333333333333 0  0.9333333333333333 0.2333333333333333 0  0.9666666666666667 0.2333333333333333 0  1 0.2333333333333333 0  0 0.2666666666666667 0  0.03333333333333333 0.2666666666666667 0  0.06666666666666667 0.2666666666666667 0  0.1 0.2666666666666667 0  0.1333333333333333 0.2666666666666667 0  0.1666666666666667 0.2666666666666667 0  0.2 0.2666666666666667 0  0.2333333333333333 0.2666666666666667 0  0.2666666666666667 0.2666666666666667 0  0.3 0.2666666666666667 0  0.3333333333333333 0.2666666666666667 0  0.3666666666666666 0.2666666666666667 0  0.4 0.2666666666666667 0  0.4333333333333333 0.2666666666666667 0  0.4666666666666667 0.2666666666666667 0  0.5 0.2666666666666667 0  0.5333333333333333 0.2666666666666667 0  0.5666666666666667 0.2666666666666667 0  0.6 0.2666666666666667 0  0.6333333333333333 0.2666666666666667 0  0.6666666666666666 0.2666666666666667 0  0.7 0.2666666666666667 0  0.7333333333333333 0.2666666666666667 0  0.7666666666666667 0.2666666666666667 0  0.8 0.2666666666666667 0  0.8333333333333334 0.2666666666666667 0  0.8666666666666667 0.2666666666666667 0  0.9 0.2666666666666667 0  0.9333333333333333 0.2666666666666667 0  0.9666666666666667 0.2666666666666667 0  1 0.2666666666666667 0  0 0.3 0  0.03333333333333333 0.3 0  0.06666666666666667 0.3 0  0.1 0.3 0  0.1333333333333333 0.3 0  0.1666666666666667 0.3 0  0.2 0.3 0  0.2333333333333333 0.3 0  0.2666666666666667 0.3 0  0.3 0.3 0  0.3333333333333333 0.3 0  0.3666666666666666 0.3 0  0.4 0.3 0  0.4333333333333333 0.3 0  0.4666666666666667 0.3 0  0.5 0.3 0  0.5333333333333333 0.3 0  0.5666666666666667 0.3 0  0.6 0.3 0  0.6333333333333333 0.3 0  0.6666666666666666 0.3 0  0.7 0.3 0  0.7333333333333333 0.3 0  0.7666666666666667 0.3 0  0.8 0.3 0  0.8333333333333334 0.3 0  0.8666666666666667 0.3 0  0.9 0.3 0  0.9333333333333333 0.3 0  0.9666666666666667 0.3 0  1 0.3 0  0 0.3333333333333333 0  0.03333333333333333 0.3333333333333333 0  0.06666666666666667 0.3333333333333333 0  0.1 0.3333333333333333 0  0.1333333333333333 0.3333333333333333 0  0.1666666666666667 0.3333333333333333 0  0.2 0.3333333333333333 0  0.2333333333333333 0.3333333333333333 0  0.2666666666666667 0.3333333333333333 0  0.3 0.3333333333333333 0  0.3333333333333333 0.3333333333333333 0  0.3666666666666666 0.3333333333333333 0  0.4 0.3333333333333333 0  0.4333333333333333 0.3333333333333333 0  0.4666666666666667 0.3333333333333333 0  0.5 0.3333333333333333 0  0.5333333333333333 0.33333333333333
[...]
<PointData  Scalars="f_18-2"> 
<DataArray  type="Float64"  Name="f_18-2"  format="ascii">1.4802229141843443e-01  1.4802230954340423e-01  1.4802235457754656e-01  1.4802242293445694e-01  1.4802245879961679e-01  1.4802231362625717e-01  1.4802173588514847e-01  1.4802043226930889e-01  1.4801821016751482e-01  1.4801514762236309e-01  1.4801168455571356e-01  1.4800854368984839e-01  1.4800648355071208e-01  1.4800599978524079e-01  1.4800713561074014e-01  1.4800949822402926e-01  1.4801245336233057e-01  1.4801537701265705e-01  1.4801783877812236e-01  1.4801965910950093e-01  1.4802086104277593e-01  1.4802157685136472e-01  1.4802196384987801e-01  1.4802215460458723e-01  1.4802224056601127e-01  1.4802227604070706e-01  1.4802228945762075e-01  1.4802229410817583e-01  1.4802229558512769e-01  1.4802229601340822e-01  1.4802229608375114e-01  1.4802231370561272e-01  1.4802233884380517e-01  1.4802239486453445e-01  1.4802243620934225e-01  1.4802231853692183e-01  1.4802174398661458e-01  1.4802027023874084e-01  1.4801743956342556e-01  1.4801302693091059e-01  1.4800730485863289e-01  1.4800115012086207e-01  1.4799585875736554e-01  1.4799269969408768e-01  1.4799241832952703e-01  1.4799495597229442e-01  1.4799952667983268e-01  1.4800498090503664e-01  1.4801023985301179e-01  1.4801459245443496e-01  1.4801777034801444e-01  1.4801984800199333e-01  1.4802107553324012e-01  1.4802173485832865e-01  1.4802205806009439e-01  1.4802220301620811e-01  1.4802226258205117e-01  1.4802228501952133e-01  1.4802229276497483e-01  1.4802229521371887e-01  1.4802229591943097e-01  1.4802229604754172e-01  1.4802238945537541e-01  1.4802242458936260e-01  1.4802246200576219e-01  1.4802227242655089e-01  1.4802133569282705e-01  1.4801874288551459e-01  1.4801329166045835e-01  1.4800389209400627e-01  1.4799023804988282e-01  1.4797344640554796e-01  1.4795621324177996e-01  1.4794218614164187e-01  1.4793470069202241e-01  1.4793548307460977e-01  1.4794401175615421e-01  1.4795785617607141e-01  1.4797373993773333e-01  1.4798872078659930e-01  1.4800094465767533e-01  1.4800978573207949e-01  1.4801553219247343e-01  1.4801891785636559e-01  1.4802073635181828e-01  1.4802163019949693e-01  1.4802203326651991e-01  1.4802220025724619e-01  1.4802226386194478e-01  1.4802228613343121e-01  1.4802229329931238e-01  1.4802229540373907e-01  1.4802229580050213e-01  1.4802254316294922e-01  1.4802252174480010e-01  1.4802225658744531e-01  1.4802092547651896e-01  1.4801688875825300e-01  1.4800752864588501e-01  1.4798963221373670e-01  1.4796057778949415e-01  1.4792014050036553e-01  1.4787208330000934e-01  1.4782434434875893e-01  1.4778709673139198e-01  1.4776919733422411e-01  1.4777473126883145e-01  1.4780150891798985e-01  1.4784226365082434e-01  1.4788772916316856e-01  1.4792987350121684e-01  1.4796384171158383e-01  1.4798818652417911e-01  1.4800390442617389e-01  1.4801312246456966e-01  1.4801806025081560e-01  1.4802048504418394e-01  1.4802157923901296e-01  1.4802203358111396e-01  1.4802220727027376e-01  1.4802226839179561e-01  1.4802228817602384e-01  1.4802229401548048e-01  1.4802229513949625e-01  1.4802266524359661e-01  1.4802230511504164e-01  1.4802068303344942e-01  1.4801535158459819e-01  1.4800174079931297e-01  1.4797294678607339e-01  1.4792091269626972e-01  1.4783958515142018e-01  1.4772950600399648e-01  1.4760167407243757e-01  1.4747764474612249e-01  1.4738410674750127e-01  1.4734346050210642e-01  1.4736498474310170e-01  1.4744140247120913e-01  1.4755257218667517e-01  1.4767387432084794e-01  1.4778463499255162e-01  1.4787287711801358e-01  1.4793553455837896e-01  1.4797569137997754e-01  1.4799911023182968e-01  1.4801160527336021e-01  1.4801772634665197e-01  1.4802048573836180e-01  1.4802163186473224e-01  1.4802207066161704e-01  1.4802222546457500e-01  1.4802227573731735e-01  1.4802229061351568e-01  1.4802229352297486e-01  1.4802219246922355e-01  1.4802067532492361e-01  1.4801475302440822e-01  1.4799804549827680e-01  1.4795904120317108e-01  1.4788090627489306e-01  1.4774457817179931e-01  1.4753649689506340e-01  1.4725968751187452e-01  1.4694293991356394e-01  1.4664059414058336e-01  1.4641859605957638e-01  1.4633085254993669e-01  1.4639760757053052e-01  1.4659782903843796e-01  1.4687949918544807e-01  1.4718116725534894e-01  1.4745277445915594e-01  1.4766663164448440e-01  1.4781697188590165e-01  1.4791252493093557e-01  1.4796788013865683e-01  1.4799726631920870e-01  1.4801161154528683e-01  1.4801806468210463e-01  1.4802074264768592e-01  1.4802176810981027e-01  1.4802213028214931e-01  1.4802224810218614e-01  1.4802228300618153e-01  1.4802228992073149e-01  1.4801954728935704e-01  1.4801496260276034e-01  1.4799794551629047e-01  1.4795355281151371e-01  1.4785522249450364e-01  1.4766469210442140e-01  1.4733911709304132e-01  1.4684865695334429e-01  1.4620200999061067e-01  1.4546786423163741e-01  1.4477423359997124e-01  1.4427501936160222e-01  1.4409377071493862e-01  1.4427315834863008e-01  1.4475856101141724e-01  1.4542428610922942e-01  1.4612580734487188e-01  1.4674879051479137e-01  1.4723320378849256e-01  1.4756992728283730e-01  1.4778186899150872e-01  1.4790366902916885e-01  1.4796792247094867e-01  1.4799914171679696e-01  1.4801313973046265e-01  1.4801893681802095e-01  1.4802115435037874e-01  1.4802193733150343e-01  1.4802219209650069e-01  1.4802226754511577e-01  1.4802228264191727e-01  1.4801147764196326e-01  1.4800006230023868e-01  1.4795856479871933e-01  1.4785510219963796e-01  1.4763309947363376e-01  1.4721113552405579e-01  1.4649754558042835e-01  1.4542783563282405e-01  1.4402100708883894e-01  1.4242833083396123e-01  1.4093226457721150e-01  1.3987068072913336e-01  1.3951112088885395e-01  1.3994035928271295e-01  1.4103047130949922e-01  1.4249873016600406e-01  1.4402530654825815e-01  1.4536321023010942e-01  1.4638973660273114e-01  1.4709422504162742e-01  1.4753259951133380e-01  1.4778210893783617e-01  1.4791271781816281e-01  1.4797579921391549e-01  1.4800395739206862e-01  1.4801558097104175e-01  1.4802001705495194e-01  1.4802158079033853e-01  1.4802208889672316e-01  1.4802223908481790e-01  1.4802226935810661e-01  1.4799275901637562e-01  1.4796816813591085e-01  1.4787948178354735e-01  1.4766428908244095e-01  1.4721101202482481e-01  1.4635749890304411e-01  1.4491811359875678e-01  1.4275888468472925e-01  1.3991627608042348e-01  1.3670185473392424e-01  1.3369674297787754e-01  1.3158689914693261e-01  1.3090567072537582e-01  1.3181982334965703e-01  1.3406591594470330e-01  1.3706505727491264e-01  1.4015888807167909e-01  1.4284218662176013e-01  1.4487465073014502e-01  1.4625041744484144e-01  1.4709540490905104e-01  1.4757094066017448e-01  1.4781757859415887e-01  1.4793583522746506e-01  1.4798832446471463e-01  1.4800989627058420e-01  1.4801809985532388e-01  1.4802098283067300e-01  1.4802191680714025e-01  1.4802219188236634e-01  1.4802224759535323e-01  1.4795697094185389e-01  1.4791008470232386e-01  1.4774124953742468e-01  1.4733810951758769e-01  1.4649712121511677e-01  1.4491778685081855e-01  1.4224946643614281e-01  1.3823585904768740e-01  1.3295267186251841e-01  1.2700893896393253e-01  1.2150489246564095e-01  1.1768528635000634e-01  1.1648009032271375e-01  1.1817587088196405e-01  1.2232255246337150e-01  1.2789070976765279e-01  1.3365396797895240e-01  1.3863832373993182e-01  1.4237963867072720e-01  1.4487975423218913e-01  1.4639438610221162e-01  1.4723616133634537e-01  1.4766819096361364e-01  1.4787359730972666e-01  1.4796415595918788e-01  1.4800116858965179e-01  1.4801517735256756e-01  1.4802007854109267e-01  1.4802165897628819e-01  1.4802212192201736e-01  1.4802221589919873e-01  1.4789887200396337e-01  1.4781880052720500e-01  1.4752996188190406e-01  1.4684654506590572e-01  1.4542669523456198e-01  1.4275753053346088e-01  1.3823430957710539e-01  1.3142897569737125e-01  1.2253401958258241e-01  1.1268533712398830e-01  1.0375966227417963e-01  9.7684000794144590e-02  9.5773648036541828e-02  9.8426519920405825e-02  1.0506058803979031e-01  1.1419689977990954e-01  1.2385993912108338e-01  1.3231325127917978e-01  1.3865766415333816e-01  1.4286096195566431e-01  1.4537584364641257e-01  1.4675583569279929e-01  1.4745621893052169e-01  1.4778615000132989e-01  1.4793050835810129e-01  1.4798912924457519e-01  1.4801118598809099e-01  1.4801885777867893e-01  1.4802131583390743e-01  1.4802203049357079e-01  1.4802217552580801e-01  1.4781800921433305e-01  1.4769472366455583e-01  1.4724854984523561e-01  1.4619815689107180e-01  1.4401842087541841e-01  1.3991246341889446e-01  1.3294684189397976e-01  1.2252803513507740e-01  1.0915494610247543e-01  9.4806224744433121e-02  8.2296791782692572e-02  7.4058593939357528e-02  7.1462131456629718e-02  7.4886426605342143e-02  8.3839738523948645e-02  9.6759934967605626e-02  1.1103950883188551e-01  1.2392064642475287e-01  1.3371925124515088e-01  1.4020610479281526e-01  1.4405318435406020e-01  1.4614018646407387e-01  1.4718783880344410e-01  1.4767670088565271e-01  1.4788887366259032e-01  1.4797441274511197e-01  1.4800637487631246e-01  1.4801741116843706e-01  1.4802091799808539e-01  1.4802192763522140e-01  1.4802213191089530e-01  1.4772189895961085e-01  1.4755012285565264e-01  1.4692617077897319e-01  1.4546163821262276e-01  1.4242329623403630e-01  1.3669342828186545e-01  1.2699459457350473e-01  1.1266640214578665e-01  9.4790580434147939e-02  7.6457813902870222e-02  6.1323651898599341e-02  5.1822377052572990e-02  4.8842437906414050e-02  5.2531416820696411e-02  6.2741140593615199e-02  7.8433843416833016e-02  9.6898383260117710e-02  1.1437618315735124e-01  1.2803867079577888e-01  1.3716039433673680e-01  1.4255105414921584e-01  1.4544989371142364e-01  1.4689092327750139e-01  1.4755726794585258e-01  1.4784410895607619e-01  1.4795885723251062e-01  1.4800139431551282e-01  1.4801595322159308e-01  1.4802053134616280e-01  1.4802183294129706e-01  1.4802209468530950e-01  1.4762640497565674e-01  1.4740931839295168e-01  1.4661805570086750e-01  1.4476524654621190e-01  1.4092377331874162e-01  1.3368134925151104e-01  1.2147734568031386e-01  1.0372021625524605e-01  8.2255776290601587e-02  6.1297298461236278e-02  4.5003388243132741e-02  3.5324791461593646e-02  3.2335552890409132e-02  3.5831050377704281e-02  4.6083165002981728e-02  6.2942594783647415e-02  8.4178823795267060e-02  1.0541096307509980e-01  1.2258807033174307e-01  1.3422782795047766e-01  1.4111545512581247e-01  1.4479863548788777e-01  1.4661517237578928e-01  1.4744835464172037e-01  1.4780416952539072e-01  1.4794535492515751e-01  1.4799722538518323e-01  1.4801479289103026e-01  1.4802024581334022e-01  1.4802177144309378e-01  1.4802207524545136e-01  1.4755186545298521e-01  1.4730259479397403e-01  1.4639137356047807e-01  1.4426337891758817e-01  1.3985817603942235e-01  1.3156296256316341e-01  1.1764114498796585e-01  9.7618226893261911e-02  7.3984627031782185e-02  5.1762254514342888e-02  3.5292845077147111e-02  2.5955311058372576e-02  2.3116783198624542e-02  2.6281268452654341e-02  3.6022722290623928e-02  5.2943786247401869e-02  7.5447553931598840e-02  9.8970509551050828e-02  1.1857439810996952e-01  1.3205579785855981e-01  1.4006069083782530e-01  1.4432839650239504e-01  1.4642095371711056e-01  1.4737414885234887e-01  1.4777815609500486e-01  1.4793710313582797e-01  1.4799490965953768e-01  1.4801424206940803e-01  1.4802014637026245e-01  1.4802176460200181e-01  1.4802208217221458e-01  1.4751599840192520e-01  1.4725552700669287e-01  1.4630117287312897e-01  1.4408020952215592e-01  1.3949493306116631e-01  1.3087338592165981e-01  1.1641893112313652e-01  9.5679057567986600e-02  7.1349254849374238e-02  4.8739921635709442e-02  3.2263294518489999e-02  2.3079124539843260e-02  2.0284021239522599e-02  2.3267194254157637e-02  3.2698275428839595e-02  4.9453951524490516e-02  7.2230104792357530e-02  9.6491829066852899e-02  1.1699424580779053e-01  1.3120390556457626e-01  1.3966012368123137e-01  1.4416083673041641e-01  1.4635868173902283e-01  1.4735419366977462e-01  1.4777312248096924e-01  1.4793644931445829e-01  1.4799515706148036e-01  1.4801449144926726e-01  1.4802027659309258e-01  1.4802182006443079e-01  1.4802211656738590e-01  1.4752699178726561e-01  1.4727890245872222e-01  1.4636830946962295e-01  1.4425893177418483e-01  1.3992184852455414e-01  1.3178164969522618e-01  1.1810137891371494e-01  9.8305699083570910e-02  7.4731216414009177e-02  5.2374130545011624e-02  3.5699665084422003e-02  2.6185538260704258e-02  2.3210652789601219e-02  2.6255971439621249e-02  3.5863272879709307e-02  5.2618608587033787e-02  7.4986773180186192e-02  9.8513667265749269e-02  1.1826259035648412e-01  1.3191520181458913e-01  1.4003212558841741e-01  1.4434665662966606e-01  1.4644791076226904e-01  1.4739524574840049e-01  1.4779108762567963e-01  1.4794386507699872e-01  1.4799801976168994e-01  1.4801551598024948e-01  1.4802061420097334e-01  1.4802192609224091e-01  1.4802217024879627e-01  1.4758049001835963e-01  1.4736471785014693e-01  1.4657158882557328e-01  1.4474511696120138e-01  1.4101172047202326e-01  1.3402618630244442e-01  1.2224260976617657e-01  1.0492357329930797e-01  8.3647581555137948e-02  6.2521191517277225e-02  4.5869080747244696e-02  3.5834396739659727e-02  3.2546228711949135e-02  3.5767689121115935e-02  4.5720600450529107e-02  6.2261168120565348e-02  8.3296327129801492e-02  1.0460133012949360e-01  1.2206983463587286e-01  1.3401155371860479e-01  1.4108519552217058e-01  1.4484144746168667e-01  1.4666781978667673e-01  1.4748785633987421e-01  1.4782792836874056e-01  1.4795763606804349e-01  1.4800282502259041e-01  1.4801706881530205e-01  1.4802107504917408e-01  1.4802205497326812e-01  1.4802222855448938e-01  1.4766197726582148e-01  1.4749026638335819e-01  1.4685814719782106e-01  1.4541284137344485e-01  1.4248187150167091e-01  1.3702863101859550e-01  1.2781549205513745e-01  1.1406111537148923e-01  9.6552389747855641e-02  7.8166597049589587e-02  6.2644767777037078e-02  5.2643948362273665e-02  4.9176002371885026e-02  5.2393504907391544e-02  6.2132459362289325e-02  7.7427462010471917e-02  9.5746788655063808e-02  1.1342751756004682e-01  1.2748874494026585e-01  1.3696445879402416e-01  1.4255490763146680e-01  1.4552320413014108e-01  1.4696519027592522e-01  1.4760991616187133e-01  1.4787491089851865e-01  1.4797449932691537e-01  1.4800842807732151e-01  1.4801877599726598e-01  1.4802154637934678e-01  1.4802217445874236e-01  1.4802227664724413e-01  1.4775292388723785e-01  1.4762761484961584e-01  1.4716536836120514e-01  1.4611702783421446e-01  1.4401181642461955e-01  1.4012941257891021e-01  1.3359213405786483e-01  1.2374402103072171e-01  1.1084996539996186e-01  9.6630162376985129e-02  8.3846463352415634e-02  7.5078794501291346e-02  7.1860163332839927e-02  7.4660000604318141e-02  8.3062422235030395e-02  9.5637119604953913e-02  1.0991006890375139e-01  1.2309666082173921e-01  1.3330530558986284e-01  1.4010698261006874e-01  1.4411267417095244e-01  1.4624200938724280e-01  1.4727566720822985e-01  1.4773534148034112e-01  1.4792208635356674e-01  1.4799090751266128e-01  1.4801365713597037e-01  1.4802028325635361e-01  1.4802193181584250e-01  1.4802226096701063e-01  1.4802230574034839e-01  1.4783725527684743e-01  1.4775320081944948e-01  1.4744213985054164e-01  1.4674271514709081e-01  1.4535355802896902e-01  1.4282101728728838e-01  1.3859372941560813e-01  1.3222806563963788e-01  1.2377563951398496e-01  1.1415817708925600e-01  1.0512123745361067e-01  9.8627911194372822e-02  9.6131310147137883e-02  9.8182284815768447e-02  1.0434684250416153e-01  1.1327686743021732e-01  1.2303985738841192e-01  1.3179509650043855e-01  1.3846093091326561e-01  1.4288006261981828e-01  1.4548615296556772e-01  1.4687407898627763e-01  1.4754656809972913e-01  1.4784319084001143e-01  1.4796173306816643e-01  1.4800424754935548e-01  1.4801771362016358e-01  1.4802137614521113e-01  1.4802218358255526e-01  1.4802230716318465e-01  1.4802231566014765e-01  1.4790524492234225e-01  1.4785330476332326e-01  1.4766011996295228e-01  1.4722940513623831e-01  1.4638352171249716e-01  1.4486103099600744e-01  1.4235108891251702e-01  1.3860300042497181e-01  1.3362479887142598e-01  1.2789261170676183e-01  1.2238687909035971e-01  1.1832818657345187e-01  1.1672821258729311e-01  1.1801273600989595e-01  1.2187144511262725e-01  1.2736084586575608e-01  1.3324247839530259e-01  1.3844103927508911e-01  1.4237554740640498e-01  1.4498605872682230e-01  1.4653030823580704e-01  1.4735334424340463e-01  1.4775013148155686e-01  1.4792283953028718e-01  1.4799021238152771e-01  1.4801343980970263e-01  1.4802034016623844e-01  1.4802201758444300e-01  1.4802230712955255e-01  1.4802232056605680e-01  1.4802231273672345e-01  1.4795398407979646e-01  1.4792436019465163e-01  1.4781334796825291e-01  1.4756777757095146e-01  1.4709059929342075e-01  1.4624248695959804e-01  1.4486328794309855e-01  1.4282967335250271e-01  1.4015213797330456e-01  1.3707648589380605e-01  1.3411098145097541e-01  1.3191101008573000e-01  1.3104567034104667e-01  1.3176474590122622e-01  1.3388941710410776e-01  1.3688173085180791e-01  1.4006151940299261e-01  1.4286074992012343e-01  1.4498064001884961e-01  1.4639141678475454e-01  1.4722745386159322e-01  1.4767169400087107e-01  1.4788356419397408e-01  1.4797382093064337e-01  1.4800776481662362e-01  1.4801878262350043e-01  1.4802172892319829e-01  1.4802230256726950e-01  1.4802234168376729e-01  1.4802231575269040e-01  1.4802230508838723e-01  1.4798545808779576e-01  1.4796984126830520e-01  1.4791069564456921e-01  1.4778076672779802e-01  1.4753067162840464e-01  1.4709118941916735e-01  1.4638572214066234e-01  1.4535956368032238e-01  1.4402536561070878e-01  1.4250806383124404e-01  1.4105575160315117e-01  1.3998671784426309e-01  1.3957908818519069e-01  1.3995453364888588e-01  1.4102113315249928e-01  1.4250994627523608e-01  1.4408623622049352e-01  1.4547337960623899e-01  1.4652545973079681e-01  1.4722622380539899e-01  1.4764031993662619e-01  1.4785823323503636e-01  1.4796012411553913e-01  1.4800206259463536e-01  1.4801695753046848e-01  1.4802133388766614e-01  1.4802228720480851e-01  1.4802237499155932e-01  1.4802233302539797e-01  1.4802230595564675e-01  1.4802229855454485e-01  1.4800391963642279e-01  1.4799630396822563e-01  1.4796704595016341e-01  1.4790315700038315e-01  1.4778117058580051e-01  1.4756888311425731e-01  1.4723196871393363e-01  1.4674804165739380e-01  1.4612701006091464e-01  1.4542972454899467e-01  1.4477083792596943e-01  1.4429413219550363e-01  1.4412336547709370e-01  1.4431064214769238e-01  1.4481133522839224e-01  1.4550151712231865e-01  1.4622867765617747e-01  1.4686715709572265e-01  1.4735036835235241e-01  1.4767068720609008e-01  1.4785800779535602e-01  1.4795467866049553e-01  1.4799840106062243e-01  1.4801543166029749e-01  1.4802092973715839e-01  1.4802226212760011e-01  1.4802241497054641e-01  1.4802235820202583e-01  1.4802231432273510e-01  1.4802229856832003e-01  1.4802229527124489e-01  1.4801381021854484e-01  1.4801037418550578e-01  1.4799692515217314e-01  1.4796770738860743e-01  1.4791229862508293e-01  1.4781665348209352e-01  1.4766631742694325e-01  1.4745276583690725e-01  1.4718205471564150e-01  1.4688214903232472e-01  1.4660317618599339e-01  1.4640625798603821e-01  1.4634266225781750e-01  1.4643249319600971e-01  1.4665482613154404e-01  1.4695567578534752e-01  1.4726965819298654e-01  1.4754332157734823e-01  1.4774865093213602e-01  1.4788300987809325e-01  1.4795996453596449e-01  1.4799837213376135e-01  1.4801482615514100e-01  1.4802066805637734e-01  1.4802223760083122e-01  1.4802245215405771e-01  1.4802238604170706e-01  1.4802232518793879e-01  1.4802230093989163e-01  1.4802229530561278e-01  1.4802229465429168e-01  1.4801866776920608e-01  1.4801723421497148e-01  1.4801148811851725e-01  1.4799906037692800e-01  1.4797562692370578e-01  1.4793545081921189e-01  1.4787282120484396e-01  1.4778472792614578e-01  1.4767433545162653e-01  1.4755370633890844e-01  1.4744352036107061e-01  1.4736826375184617e-01  1.4734780666367628e-01  1.4738910793413545e-01  1.4748267102398649e-01  1.4760609288754109e-01  1.4773289933049516e-01  1.4784185149116913e-01  1.4792221758756657e-01  1.4797358263740470e-01  1.4800199118887336e-01  1.4801541696018952e-01  1.4802066675037592e-01  1.4802222741762