<?xml version="1.0"?>
<VTKFile type="UnstructuredGrid"  version="0.1"  >
<UnstructuredGrid>
<Piece  NumberOfPoints="961" NumberOfCells="1800">
<Points>
<DataArray  type="Float64"  NumberOfComponents="3"  format="ascii">0 0 0  0.03333333333333333 0 0  0.06666666666666667 0 0  0.1 0 0  0.1333333333333333 0 0  0.1666666666666667 0 0  0.2 0 0  0.2333333333333333 0 0  0.2666666666666667 0 0  0.3 0 0  0.3333333333333333 0 0  0.3666666666666666 0 0  0.4 0 0  0.4333333333333333 0 0  0.4666666666666667 0 0  0.5 0 0  0.5333333333333333 0 0  0.5666666666666667 0 0  0.6 0 0  0.6333333333333333 0 0  0.6666666666666666 0 0  0.7 0 0  0.7333333333333333 0 0  0.7666666666666667 0 0  0.8 0 0  0.8333333333333334 0 0  0.8666666666666667 0 0  0.9 0 0  0.9333333333333333 0 0  0.9666666666666667 0 0  1 0 0  0 0.03333333333333333 0  0.03333333333333333 0.03333333333333333 0  0.06666666666666667 0.03333333333333333 0  0.1 0.03333333333333333 0  0.1333333333333333 0.03333333333333333 0  0.1666666666666667 0.03333333333333333 0  0.2 0.03333333333333333 0  0.2333333333333333 0.03333333333333333 0  0.2666666666666667 0.03333333333333333 0  0.3 0.03333333333333333 0  0.3333333333333333 0.03333333333333333 0  0.3666666666666666 0.03333333333333333 0  0.4 0.03333333333333333 0  0.4333333333333333 0.03333333333333333 0  0.4666666666666667 0.03333333333333333 0  0.5 0.03333333333333333 0  0.5333333333333333 0.03333333333333333 0  0.5666666666666667 0.03333333333333333 0  0.6 0.03333333333333333 0  0.6333333333333333 0.03333333333333333 0  0.6666666666666666 0.03333333333333333 0  0.7 0.03333333333333333 0  0.7333333333333333 0.03333333333333333 0  0.7666666666666667 0.03333333333333333 0  0.8 0.03333333333333333 0  0.8333333333333334 0.03333333333333333 0  0.8666666666666667 0.03333333333333333 0  0.9 0.03333333333333333 0  0.9333333333333333 0.03333333333333333 0  0.9666666666666667 0.03333333333333333 0  1 0.03333333333333333 0  0 0.06666666666666667 0  0.03333333333333333 0.06666666666666667 0  0.06666666666666667 0.06666666666666667 0  0.1 0.06666666666666667 0  0.1333333333333333 0.06666666666666667 0  0.1666666666666667 0.06666666666666667 0  0.2 0.06666666666666667 0  0.2333333333333333 0.06666666666666667 0  0.2666666666666667 0.06666666666666667 0  0.3 0.06666666666666667 0  0.3333333333333333 0.06666666666666667 0  0.3666666666666666 0.06666666666666667 0  0.4 0.06666666666666667 0  0.4333333333333333 0.06666666666666667 0  0.4666666666666667 0.06666666666666667 0  0.5 0.06666666666666667 0  0.5333333333333333 0.06666666666666667 0  0.5666666666666667 0.06666666666666667 0  0.6 0.06666666666666667 0  0.6333333333333333 0.06666666666666667 0  0.6666666666666666 0.06666666666666667 0  0.7 0.06666666666666667 0  0.7333333333333333 0.06666666666666667 0  0.7666666666666667 0.06666666666666667 0  0.8 0.06666666666666667 0  0.8333333333333334 0.06666666666666667 0  0.8666666666666667 0.06666666666666667 0  0.9 0.06666666666666667 0  0.9333333333333333 0.06666666666666667 0  0.9666666666666667 0.06666666666666667 0  1 0.06666666666666667 0  0 0.1 0  0.03333333333333333 0.1 0  0.06666666666666667 0.1 0  0.1 0.1 0  0.1333333333333333 0.1 0  0.1666666666666667 0.1 0  0.2 0.1 0  0.2333333333333333 0.1 0  0.2666666666666667 0.1 0  0.3 0.1 0  0.3333333333333333 0.1 0  0.3666666666666666 0.1 0  0.4 0.1 0  0.4333333333333333 0.1 0  0.4666666666666667 0.1 0  0.5 0.1 0  0.5333333333333333 0.1 0  0.5666666666666667 0.1 0  0.6 0.1 0  0.6333333333333333 0.1 0  0.6666666666666666 0.1 0  0.7 0.1 0  0.7333333333333333 0.1 0  0.7666666666666667 0.1 0  0.8 0.1 0  0.8333333333333334 0.1 0  0.8666666666666667 0.1 0  0.9 0.1 0  0.9333333333333333 0.1 0  0.9666666666666667 0.1 0  1 0.1 0  0 0.1333333333333333 0  0.03333333333333333 0.1333333333333333 0  0.06666666666666667 0.1333333333333333 0  0.1 0.1333333333333333 0  0.1333333333333333 0.1333333333333333 0  0.1666666666666667 0.1333333333333333 0  0.2 0.1333333333333333 0  0.2333333333333333 0.1333333333333333 0  0.2666666666666667 0.1333333333333333 0  0.3 0.1333333333333333 0  0.3333333333333333 0.1333333333333333 0  0.3666666666666666 0.1333333333333333 0  0.4 0.1333333333333333 0  0.4333333333333333 0.1333333333333333 0  0.4666666666666667 0.1333333333333333 0  0.5 0.1333333333333333 0  0.5333333333333333 0.1333333333333333 0  0.5666666666666667 0.1333333333333333 0  0.6 0.1333333333333333 0  0.6333333333333333 0.1333333333333333 0  0.6666666666666666 0.1333333333333333 0  0.7 0.1333333333333333 0  0.7333333333333333 0.1333333333333333 0  0.7666666666666667 0.1333333333333333 0  0.8 0.1333333333333333 0  0.8333333333333334 0.1333333333333333 0  0.8666666666666667 0.1333333333333333 0  0.9 0.1333333333333333 0  0.9333333333333333 0.1333333333333333 0  0.9666666666666667 0.1333333333333333 0  1 0.1333333333333333 0  0 0.1666666666666667 0  0.03333333333333333 0.1666666666666667 0  0.06666666666666667 0.1666666666666667 0  0.1 0.1666666666666667 0  0.1333333333333333 0.1666666666666667 0  0.1666666666666667 0.1666666666666667 0  0.2 0.1666666666666667 0  0.2333333333333333 0.1666666666666667 0  0.2666666666666667 0.1666666666666667 0  0.3 0.1666666666666667 0  0.3333333333333333 0.1666666666666667 0  0.3666666666666666 0.1666666666666667 0  0.4 0.1666666666666667 0  0.4333333333333333 0.1666666666666667 0  0.4666666666666667 0.1666666666666667 0  0.5 0.1666666666666667 0  0.5333333333333333 0.1666666666666667 0  0.5666666666666667 0.1666666666666667 0  0.6 0.1666666666666667 0  0.6333333333333333 0.1666666666666667 0  0.6666666666666666 0.1666666666666667 0  0.7 0.1666666666666667 0  0.7333333333333333 0.1666666666666667 0  0.7666666666666667 0.1666666666666667 0  0.8 0.1666666666666667 0  0.8333333333333334 0.1666666666666667 0  0.8666666666666667 0.1666666666666667 0  0.9 0.1666666666666667 0  0.9333333333333333 0.1666666666666667 0  0.9666666666666667 0.1666666666666667 0  1 0.1666666666666667 0  0 0.2 0  0.03333333333333333 0.2 0  0.06666666666666667 0.2 0  0.1 0.2 0  0.1333333333333333 0.2 0  0.1666666666666667 0.2 0  0.2 0.2 0  0.2333333333333333 0.2 0  0.2666666666666667 0.2 0  0.3 0.2 0  0.3333333333333333 0.2 0  0.3666666666666666 0.2 0  0.4 0.2 0  0.4333333333333333 0.2 0  0.4666666666666667 0.2 0  0.5 0.2 0  0.5333333333333333 0.2 0  0.5666666666666667 0.2 0  0.6 0.2 0  0.6333333333333333 0.2 0  0.6666666666666666 0.2 0  0.7 0.2 0  0.7333333333333333 0.2 0  0.7666666666666667 0.2 0  0.8 0.2 0  0.8333333333333334 0.2 0  0.8666666666666667 0.2 0  0.9 0.2 0  0.9333333333333333 0.2 0  0.9666666666666667 0.2 0  1 0.2 0  0 0.2333333333333333 0  0.03333333333333333 0.2333333333333333 0  0.06666666666666667 0.2333333333333333 0  0.1 0.2333333333333333 0  0.1333333333333333 0.2333333333333333 0  0.1666666666666667 0.2333333333333333 0  0.2 0.2333333333333333 0  0.2333333333333333 0.2333333333333333 0  0.2666666666666667 0.2333333333333333 0  0.3 0.2333333333333333 0  0.3333333333333333 0.2333333333333333 0  0.3666666666666666 0.2333333333333333 0  0.4 0.2333333333333333 0  0.4333333333333333 0.2333333333333333 0  0.4666666666666667 0.2333333333333333 0  0.5 0.2333333333333333 0  0.5333333333333333 0.2333333333333333 0  0.5666666666666667 0.2333333333333333 0  0.6 0.2333333333333333 0  0.6333333333333333 0.2333333333333333 0  0.6666666666666666 0.2333333333333333 0  0.7 0.2333333333333333 0  0.7333333333333333 0.2333333333333333 0  0.7666666666666667 0.2333333333333333 0  0.8 0.2333333333333333 0  0.8333333333333334 0.2333333333333333 0  0.8666666666666667 0.2333333333333333 0  0.9 0.2333333333333333 0  0.9333333333333333 0.2333333333333333 0  0.9666666666666667 0.2333333333333333 0  1 0.2333333333333333 0  0 0.2666666666666667 0  0.03333333333333333 0.2666666666666667 0  0.06666666666666667 0.2666666666666667 0  0.1 0.2666666666666667 0  0.1333333333333333 0.2666666666666667 0  0.1666666666666667 0.2666666666666667 0  0.2 0.2666666666666667 0  0.2333333333333333 0.2666666666666667 0  0.2666666666666667 0.2666666666666667 0  0.3 0.2666666666666667 0  0.3333333333333333 0.2666666666666667 0  0.3666666666666666 0.2666666666666667 0  0.4 0.2666666666666667 0  0.4333333333333333 0.2666666666666667 0  0.4666666666666667 0.2666666666666667 0  0.5 0.2666666666666667 0  0.5333333333333333 0.2666666666666667 0  0.5666666666666667 0.2666666666666667 0  0.6 0.2666666666666667 0  0.6333333333333333 0.2666666666666667 0  0.6666666666666666 0.2666666666666667 0  0.7 0.2666666666666667 0  0.7333333333333333 0.2666666666666667 0  0.7666666666666667 0.2666666666666667 0  0.8 0.2666666666666667 0  0.8333333333333334 0.2666666666666667 0  0.8666666666666667 0.2666666666666667 0  0.9 0.2666666666666667 0  0.9333333333333333 0.2666666666666667 0  0.9666666666666667 0.2666666666666667 0  1 0.2666666666666667 0  0 0.3 0  0.03333333333333333 0.3 0  0.06666666666666667 0.3 0  0.1 0.3 0  0.1333333333333333 0.3 0  0.1666666666666667 0.3 0  0.2 0.3 0  0.2333333333333333 0.3 0  0.2666666666666667 0.3 0  0.3 0.3 0  0.3333333333333333 0.3 0  0.3666666666666666 0.3 0  0.4 0.3 0  0.4333333333333333 0.3 0  0.4666666666666667 0.3 0  0.5 0.3 0  0.5333333333333333 0.3 0  0.5666666666666667 0.3 0  0.6 0.3 0  0.6333333333333333 0.3 0  0.6666666666666666 0.3 0  0.7 0.3 0  0.7333333333333333 0.3 0  0.7666666666666667 0.3 0  0.8 0.3 0  0.8333333333333334 0.3 0  0.8666666666666667 0.3 0  0.9 0.3 0  0.9333333333333333 0.3 0  0.9666666666666667 0.3 0  1 0.3 0  0 0.3333333333333333 0  0.03333333333333333 0.3333333333333333 0  0.06666666666666667 0.3333333333333333 0  0.1 0.3333333333333333 0  0.1333333333333333 0.3333333333333333 0  0.1666666666666667 0.3333333333333333 0  0.2 0.3333333333333333 0  0.2333333333333333 0.3333333333333333 0  0.2666666666666667 0.3333333333333333 0  0.3 0.3333333333333333 0  0.3333333333333333 0.3333333333333333 0  0.3666666666666666 0.3333333333333333 0  0.4 0.3333333333333333 0  0.4333333333333333 0.3333333333333333 0  0.4666666666666667 0.3333333333333333 0  0.5 0.3333333333333333 0  0.5333333333333333 0.33333333333333
[...]
<PointData  Scalars="f_18-2"> 
<DataArray  type="Float64"  Name="f_18-2"  format="ascii">1.6078732045667105e-01  1.6066365709742034e-01  1.6040944915176580e-01  1.6002447660461963e-01  1.5952965088852647e-01  1.5895795383408060e-01  1.5835102532902670e-01  1.5775653340156529e-01  1.5722517881493597e-01  1.5680712162061394e-01  1.5654799408414311e-01  1.5648491189367297e-01  1.5664304820366895e-01  1.5703334467170807e-01  1.5765177121636698e-01  1.5848024686350989e-01  1.5948899496023985e-01  1.6063984259455003e-01  1.6188986355992635e-01  1.6319481473058328e-01  1.6451197624541145e-01  1.6580220302738000e-01  1.6703116846930421e-01  1.6816989952830086e-01  1.6919476181910514e-01  1.7008706467589521e-01  1.7083243316239677e-01  1.7142003869473738e-01  1.7184164849891040e-01  1.7209000955122483e-01  1.7215417664059571e-01  1.6056108670412597e-01  1.6046588349262469e-01  1.6021034940276796e-01  1.5981287200706248e-01  1.5929904723106450e-01  1.5870378934836027e-01  1.5807032995123207e-01  1.5744814352886277e-01  1.5689003762952014e-01  1.5644847363533071e-01  1.5617134873378161e-01  1.5609770109762172e-01  1.5625397759951667e-01  1.5665152722032344e-01  1.5728580217938626e-01  1.5813739913169175e-01  1.5917467425083756e-01  1.6035736269306494e-01  1.6164051798903514e-01  1.6297816333628823e-01  1.6432624490123410e-01  1.6564470561366421e-01  1.6689868765596577e-01  1.6805899293292120e-01  1.6910198489213107e-01  1.7000911968661145e-01  1.7076627052529816e-01  1.7136297534298461e-01  1.7179172434661774e-01  1.7204753185871355e-01  1.7212897111725622e-01  1.5999694025999817e-01  1.5990002029683917e-01  1.5962208433447514e-01  1.5918244880887333e-01  1.5860960721657166e-01  1.5794186040029434e-01  1.5722666370040070e-01  1.5651883817891879e-01  1.5587764027254900e-01  1.5536269836200370e-01  1.5502904923544614e-01  1.5492184635199294e-01  1.5507161475673320e-01  1.5549101679258043e-01  1.5617385416613350e-01  1.5709650836077832e-01  1.5822141529494715e-01  1.5950173075801882e-01  1.6088621968849232e-01  1.6232357518228177e-01  1.6376570237297172e-01  1.6516983318971273e-01  1.6649957608371485e-01  1.6772512821732710e-01  1.6882290949646728e-01  1.6977485508925563e-01  1.7056755836799206e-01  1.7119141410370214e-01  1.7163989476551247e-01  1.7190913008074493e-01  1.7199803603565109e-01  1.5908986289960458e-01  1.5897904066460669e-01  1.5865646546865583e-01  1.5814164876110490e-01  1.5746572821182189e-01  1.5667154230141234e-01  1.5581316788227587e-01  1.5495439567187591e-01  1.5416573025791527e-01  1.5351965660887987e-01  1.5308429785464506e-01  1.5291618954179645e-01  1.5305350442740404e-01  1.5351133073227594e-01  1.5428026445827503e-01  1.5532867092756858e-01  1.5660790195998142e-01  1.5805902643918271e-01  1.5961951852790965e-01  1.6122875865545433e-01  1.6283182095824550e-01  1.6438155196449539e-01  1.6583925607927852e-01  1.6717440724371557e-01  1.6836377930085039e-01  1.6939030467111213e-01  1.7024188071758431e-01  1.7091026979683777e-01  1.7139018941790787e-01  1.7167865183352199e-01  1.7177452548633626e-01  1.5785461082517160e-01  1.5772121975694142e-01  1.5733107075846395e-01  1.5670456928932119e-01  1.5587583287667475e-01  1.5489325494556141e-01  1.5381974699651751e-01  1.5273186677510778e-01  1.5171696369626059e-01  1.5086758808958745e-01  1.5027296687038208e-01  1.5000842674539058e-01  1.5012491426158589e-01  1.5064148064713390e-01  1.5154309921300169e-01  1.5278448805789258e-01  1.5429856824204613e-01  1.5600688794245124e-01  1.5782932789190945e-01  1.5969137225325866e-01  1.6152843876006209e-01  1.6328763214370165e-01  1.6492765810315524e-01  1.6641764388410474e-01  1.6773545104959842e-01  1.6886587331953748e-01  1.6979895165869061e-01  1.7052852649103434e-01  1.7105107563544419e-01  1.7136483694354626e-01  1.7146915880333569e-01  1.5631897662752206e-01  1.5615464893287836e-01  1.5567233884700366e-01  1.5489343362409319e-01  1.5385491460588926e-01  1.5261111247567596e-01  1.5123544256849725e-01  1.4982103574028022e-01  1.4847873715205215e-01  1.4733077409624865e-01  1.4649905551144143e-01  1.4608897566499310e-01  1.4617226849448348e-01  1.4677428090502304e-01  1.4787033282906920e-01  1.4939250015963673e-01  1.5124405488977541e-01  1.5331637224613948e-01  1.5550347904253287e-01  1.5771168700320970e-01  1.5986415340829549e-01  1.6190159432715812e-01  1.6378068407936711e-01  1.6547139150113535e-01  1.6695406950544284e-01  1.6821674562665470e-01  1.6925281228739919e-01  1.7005917072286850e-01  1.7063480819532867e-01  1.7097975333026494e-01  1.7109433886441083e-01  1.5452367446708434e-01  1.5431964372952420e-01  1.5371857766521899e-01  1.5274201209150121e-01  1.5142852517279495e-01  1.4983735805368803e-01  1.4805274844996563e-01  1.4618759555006802e-01  1.4438395797821479e-01  1.4280686888754932e-01  1.4162836585696612e-01  1.4100194744773159e-01  1.4103335365216005e-01  1.4175801746813560e-01  1.4313464723991526e-01  1.4505767513997914e-01  1.4738285399126380e-01  1.4995559881189929e-01  1.5263314481257673e-01  1.5529687394239461e-01  1.5785596038612590e-01  1.6024551836839487e-01  1.6242221460862025e-01  1.6435927529397595e-01  1.6604187758618827e-01  1.6746331023958644e-01  1.6862196505748439e-01  1.6951907681869594e-01  1.7015708260928814e-01  1.7053847144880890e-01  1.7066501587915386e-01  1.5252379653104831e-01  1.5227097968822900e-01  1.5152310598630253e-01  1.5029987715648424e-01  1.4863837817670233e-01  1.4659926111294852e-01  1.4427516600897186e-01  1.4180000281977656e-01  1.3935534841356326e-01  1.3716701816377158e-01  1.3548391424231324e-01  1.3453695352163728e-01  1.3448799414043261e-01  1.3538891775419520e-01  1.3716991971093789e-01  1.3966260776876055e-01  1.4264633268852578e-01  1.4589682652752670e-01  1.4922021596565216e-01  1.5246750153824548e-01  1.5553435556334089e-01  1.5835371191235584e-01  1.6088654924957757e-01  1.6311348604722414e-01  1.6502802943119821e-01  1.6663150465465221e-01  1.6792940217138702e-01  1.6892882225934330e-01  1.6963673086612249e-01  1.7005880148767324e-01  1.7019868123738480e-01  1.5039028920665096e-01  1.5007984408964278e-01  1.4915734875977096e-01  1.4763730848179554e-01  1.4554973983108488e-01  1.4294945202597831e-01  1.3993037618395246e-01  1.3664458851689640e-01  1.3332103638159379e-01  1.3027062332137568e-01  1.2785930755255620e-01  1.2644121541867240e-01  1.2626934831268125e-01  1.2742236890603265e-01  1.2978332239149523e-01  1.3308106546108492e-01  1.3697322446308793e-01  1.4113048640247944e-01  1.4528942871650874e-01  1.4926696296414349e-01  1.5295001654078957e-01  1.5627706848812051e-01  1.5922101720398457e-01  1.6177617880378772e-01  1.6394919691225768e-01  1.6575292717872606e-01  1.6720242029589175e-01  1.6831233330277251e-01  1.6909529103956664e-01  1.6956087143866050e-01  1.6971500186043312e-01  1.4821050175742534e-01  1.4783484629210766e-01  1.4671324842962397e-01  1.4485024941890648e-01  1.4226040192675071e-01  1.3898068334349864e-01  1.3509273158455878e-01  1.3075788079153608e-01  1.2625919228018920e-01  1.2202491572172784e-01  1.1859405957309625e-01  1.1650661532904315e-01  1.1615335995502443e-01  1.1765415431984234e-01  1.2082182662268480e-01  1.2522902119746629e-01  1.3034768027274246e-01  1.3569297323849894e-01  1.4090791033588332e-01  1.4577444183097399e-01  1.5018180202700185e-01  1.5408759227058338e-01  1.5748824355882479e-01  1.6040036366485300e-01  1.6284967164487613e-01  1.6486451407246727e-01  1.6647208623514642e-01  1.6769625918468950e-01  1.6855635717809725e-01  1.6906648953362527e-01  1.6923520031348505e-01  1.4608687436050469e-01  1.4564114611126036e-01  1.4430387017928123e-01  1.4206394816509779e-01  1.3890989116284996e-01  1.3484465203312934e-01  1.2991790028664033e-01  1.2428612727501959e-01  1.1829423276893831e-01  1.1252928240807898e-01  1.0776953942943739e-01  1.0480485262919872e-01  1.0420472907290379e-01  1.0614384297454191e-01  1.1034957152856303e-01  1.1619019667735457e-01  1.2288083763902592e-01  1.2971660927184714e-01  1.3621433498060351e-01  1.4212097722335670e-01  1.4734488717605870e-01  1.5188195117398873e-01  1.5576720688598411e-01  1.5904970303893154e-01  1.6178059223658270e-01  1.6400755872967157e-01  1.6577222232887870e-01  1.6710899602562398e-01  1.6804466098791018e-01  1.6859827467041158e-01  1.6878120555294149e-01  1.4413285137925957e-01  1.4361663940923622e-01  1.4206063869264554e-01  1.3943282190989889e-01  1.3568520608209952e-01  1.3076982526261333e-01  1.2468351316046287e-01  1.1756480036039013e-01  1.0983432482012440e-01  1.0228565431357792e-01  9.5992582723091344e-02  9.2024691701890995e-02  9.1132174404637667e-02  9.3546096246443125e-02  9.8919520752520598e-02  1.0641101567074511e-01  1.1493391172051594e-01  1.2349882519511259e-01  1.3145371766299496e-01  1.3850478658215662e-01  1.4459605448370513e-01  1.4978205275190554e-01  1.5415186107870540e-01  1.5779651443774942e-01  1.6079791921209766e-01  1.6322588192460755e-01  1.6513782301431820e-01  1.6657932579526744e-01  1.6758487987470144e-01  1.6817856947760235e-01  1.6837460183941488e-01  1.4246540951789252e-01  1.4188436169970559e-01  1.4012556390917771e-01  1.3713316861877550e-01  1.3281633629184442e-01  1.2706513895010749e-01  1.1981041482965671e-01  1.1116881232170901e-01  1.0165699492393425e-01  9.2312882975997490e-02  8.4521387332427936e-02  7.9597717179975602e-02  7.8418738490556042e-02  8.1254319029755565e-02  8.7722770027350461e-02  9.6831340824349507e-02  1.0721022452455688e-01  1.1755326748420415e-01  1.2699854852452189e-01  1.3519562534895582e-01  1.4213072928859499e-01  1.4792986108702944e-01  1.5274596020559514e-01  1.5671735813822751e-01  1.5995890632923990e-01  1.6256307713093615e-01  1.6460290466150032e-01  1.6613470456220347e-01  1.6720021830069673e-01  1.6782818931370674e-01  1.6803543230381066e-01  1.4119434858632060e-01  1.4056105811441566e-01  1.3863762948368011e-01  1.3534592153246006e-01  1.3055414435055596e-01  1.2409206959727608e-01  1.1582670653380639e-01  1.0585908425192266e-01  9.4812810706136952e-02  8.3968055206996642e-02  7.4976681824975369e-02  6.9316110124289620e-02  6.7912190161075636e-02  7.1047095991324000e-02  7.8345395915724106e-02  8.8750554602127871e-02  1.0069058397477143e-01  1.1257460656211185e-01  1.2332290821675741e-01  1.3251306702119350e-01  1.4016533861762501e-01  1.4647393624009991e-01  1.5165323697467797e-01  1.5588603287095246e-01  1.5931713556444643e-01  1.6205896693042596e-01  1.6419792791683072e-01  1.6579932320711280e-01  1.6691086895381704e-01  1.6756510310735620e-01  1.6778094979945163e-01  1.4040965684007739e-01  1.3974323815739226e-01  1.3771456484163558e-01  1.3423002147733740e-01  1.2912897997419945e-01  1.2219818368739897e-01  1.1325923021968863e-01  1.0240502912776993e-01  9.0343575250645333e-02  7.8532437325203222e-02  6.8798123426836291e-02  6.2697783952639044e-02  6.1157572242265361e-02  6.4455135399137428e-02  7.2235180286431291e-02  8.3434527881170797e-02  9.6376501802172068e-02  1.0928257696096309e-01  1.2090941417452768e-01  1.3077020547187562e-01  1.3890258154364482e-01  1.4554767531007684e-01  1.5096358711502397e-01  1.5536467441703816e-01  1.5891667857919226e-01  1.6174568602475894e-01  1.6394708998916629e-01  1.6559215489729978e-01  1.6673251501309350e-01  1.6740317846298586e-01  1.6762443841578314e-01  1.4016943470669468e-01  1.3949353640947237e-01  1.3743392386185624e-01  1.3389249620311844e-01  1.2870004356977272e-01  1.2162985267224430e-01  1.1248764994706735e-01  1.0135967660829763e-01  8.8976464835662419e-02  7.6852519462099797e-02  6.6874769262441167e-02  6.0628689256404959e-02  5.9038960074268038e-02  6.2378460729347725e-02  7.0296806365791845e-02  8.1731430413246903e-02  9.4978696732485671e-02  1.0820525379434928e-01  1.2011483702498348e-01  1.3019562565184487e-01  1.3848706407667868e-01  1.4524385649264379e-01  1.5073811236129117e-01  1.5519471337109531e-01  1.5878646509390609e-01  1.6164406118778948e-01  1.6386591080002311e-01  1.6552526698072526e-01  1.6667506725104150e-01  1.6735114170126147e-01  1.6757424309774124e-01  1.4049138643722317e-01  1.3983097530381061e-01  1.3781912451720971e-01  1.3436547032490076e-01  1.2931496461964545e-01  1.2246100019495026e-01  1.1362707722669325e-01  1.0289295031829584e-01  9.0936187448815750e-02  7.9186761838648284e-02  6.9469511233394121e-02  6.3359872136072248e-02  6.1798934663733110e-02  6.5063281082822749e-02  7.2784421399433710e-02  8.3890283646534711e-02  9.6716388282411858e-02  1.0951300214691524e-01  1.2105819753456065e-01  1.3086703357963875e-01  1.3896822122282607e-01  1.4559411479216564e-01  1.5099752903314367e-01  1.5539011643930317e-01  1.5893620202944969e-01  1.6176105632233845e-01  1.6395956751127441e-01  1.6560267883235821e-01  1.6674182338301835e-01  1.6741189354959754e-01  1.6763313396509599e-01  1.4135026786416835e-01  1.4072805226255949e-01  1.3883528756162644e-01  1.3559932108732589e-01  1.3089771262614208e-01  1.2457153030252510e-01  1.1649204237891515e-01  1.0674081449522207e-01  9.5891967299039982e-02  8.5174542769733838e-02  7.6227531384398639e-02  7.0552041042994659e-02  6.9098366157341051e-02  7.2150597293555135e-02  7.9318790804830758e-02  8.9542004512334322e-02  1.0127546119288322e-01  1.1297391342873868e-01  1.2358627294622927e-01  1.3268908608057714e-01  1.4028741669949285e-01  1.4656170228515225e-01  1.5171808403638165e-01  1.5593502205378507e-01  1.5935495806712327e-01  1.6208889369754351e-01  1.6422232620086971e-01  1.6581997497425832e-01  1.6692918522224209e-01  1.6758228014241353e-01  1.6779809422585781e-01  1.4268200388172048e-01  1.4211552277293951e-01  1.4039631549682255e-01  1.3747473258507498e-01  1.3327030296941916e-01  1.2768569442087549e-01  1.2065763515347645e-01  1.1228452631769134e-01  1.0303042187487255e-01  9.3869405281120755e-02  8.6155060178774417e-02  8.1214776688283849e-02  7.9950497157378744e-02  8.2642996061381507e-02  8.8910997368861336e-02  9.7775142199035506e-02  1.0790411445039277e-01  1.1803567214722303e-01  1.2732826131629532e-01  1.3542480727454206e-01  1.4229481165282459e-01  1.4805047717194927e-01  1.5283647104402057e-01  1.5678653312395763e-01  1.6001281440784171e-01  1.6260606937585886e-01  1.6463819405148106e-01  1.6616474688173977e-01  1.6722698081464793e-01  1.6785335380097444e-01  1.6806056233334743e-01  1.4439319975173492e-01  1.4389328940111357e-01  1.4238048732084541e-01  1.3982830913521185e-01  1.3619771132930075e-01  1.3145134470507949e-01  1.2559130538453331e-01  1.1874202160315610e-01  1.1127973062326346e-01  1.0393596414586324e-01  9.7739964444160873e-02  9.3755036399491634e-02  9.2749975921694622e-02  9.4977793063517127e-02  1.0011340581550940e-01  1.0734589265567758e-01  1.1562679893315125e-01  1.2399612519559779e-01  1.3180932901911002e-01  1.3876297681804953e-01  1.4478722108553602e-01  1.4992598106243496e-01  1.5426178518357958e-01  1.5788170609194524e-01  1.6086509106003091e-01  1.6328000133026921e-01  1.6518264637885854e-01  1.6661777791958729e-01  1.6761933723769371e-01  1.6821108429722478e-01  1.6840709353007854e-01  1.4637339617209635e-01  1.4594416559393966e-01  1.4464926530115280e-01  1.4248172255676306e-01  1.3943627688421112e-01  1.3552272144667743e-01  1.3079332150906897e-01  1.2539358406984197e-01  1.1963538954707052e-01  1.1405584420281858e-01  1.0938881756968057e-01  1.0640670920666984e-01  1.0568996369871880e-01  1.0744052367003945e-01  1.1141972395564900e-01  1.1703113972513081e-01  1.2351905139246591e-01  1.3019351635481347e-01  1.3657114796960992e-01  1.4239044476220508e-01  1.4755049009276100e-01  1.5204028955510546e-01  1.5589032979241060e-01  1.5914658156219208e-01  1.6185800377949749e-01  1.6407068021780191e-01  1.6582506810040909e-01  1.6715475489868986e-01  1.6808596389607597e-01  1.6863741767164578e-01  1.6882034898390791e-01  1.4850718201732721e-01  1.4814711860483654e-01  1.4706416185619292e-01  1.4526543209985224e-01  1.4276893495850596e-01  1.3961471937817413e-01  1.3588398905457746e-01  1.3172871749563445e-01  1.2740866373125431e-01  1.2331684831655267e-01  1.1995786989240195e-01  1.1785406092703520e-01  1.1740204811650141e-01  1.1874588552008970e-01  1.2173037700059172e-01  1.2595760500008110e-01  1.3091898453110259e-01  1.3613696134038117e-01  1.4125284937072999e-01  1.4604325074697155e-01  1.5039209207460461e-01  1.5425288806368800e-01  1.5761905997148168e-01  1.6050492931754959e-01  1.6293443945398442e-01  1.6493456389663011e-01  1.6653145687885396e-01  1.6774822421127736e-01  1.6860365796134769e-01  1.6911154103774489e-01  1.6928028512984908e-01  1.5068403402579775e-01  1.5038764463632448e-01  1.4949866501161477e-01  1.4803289118215143e-01  1.4602164940637755e-01  1.4352011166647505e-01  1.4061972494603503e-01  1.3746441287279043e-01  1.3426697363719023e-01  1.3131544788229499e-01  1.2895319402452715e-01  1.2752172729964509e-01  1.2727722354680415e-01  1.2831531763594528e-01  1.3054208571261039e-01  1.3370691887838110e-01  1.3748028284393066e-01  1.4153763832886274e-01  1.4561511338191874e-01  1.4952712497882217e-01  1.5315789841209562e-01  1.5644357014773225e-01  1.5935507282426978e-01  1.6188506783175899e-01  1.6403882109970488e-01  1.6582806806842179e-01  1.6726697388872430e-01  1.6836951919328086e-01  1.6914784036747663e-01  1.6961120425561219e-01  1.6976540725548825e-01  1.5280491886941447e-01  1.5256438303821940e-01  1.5184468539694754e-01  1.5066589342788642e-01  1.4906502213672546e-01  1.4710157086184367e-01  1.4486486843651944e-01  1.4248203128407030e-01  1.4012356415102079e-01  1.3800103327754248e-01  1.3634976129384210e-01  1.3539302929518171e-01  1.3529445424830810e-01  1.3611625030403740e-01  1.3780300341890728e-01  1.4019949173370366e-01  1.4309381745740107e-01  1.4626577615407513e-01  1.4952237779260588e-01  1.5271398126618294e-01  1.5573509463601545e-01  1.5851737755087042e-01  1.6102056468372869e-01  1.6322412253655605e-01  1.6512053627681400e-01  1.6671025796944261e-01  1.6799805557227823e-01  1.6899045016509051e-01  1.6969396479045484e-01  1.7011396949194041e-01  1.7025396760075967e-01  1.5478570668377953e-01  1.5459222989569504e-01  1.5401456185823711e-01  1.5307395872313068e-01  1.5180812837224297e-01  1.5027449793868858e-01  1.4855399100340488e-01  1.4675413970006002e-01  1.4500946652900987e-01  1.4347619256021910e-01  1.4231841168738810e-01  1.4168525374187529e-01  1.4168342503844192e-01  1.4235427090887348e-01  1.4366500927408046e-01  1.4551831209218274e-01  1.4777601508507218e-01  1.5028705753288299e-01  1.5291021558486489e-01  1.5552721234127409e-01  1.5804693537484438e-01  1.6040390755842099e-01  1.6255407366335795e-01  1.6446990972147821e-01  1.6613587706142355e-01  1.6754461689218406e-01  1.6869395441579774e-01  1.6958463821895436e-01  1.7021869667795989e-01  1.7059829768907303e-01  1.7072502157769121e-01  1.5655803712117392e-01  1.5640280175363419e-01  1.5594016656864967e-01  1.5519068516044693e-01  1.5418998109974011e-01  1.5299037509011879e-01  1.5166234174353133e-01  1.5029492793561994e-01  1.4899385503206730e-01  1.4787583241494381e-01  1.4705806186550280e-01  1.4664341921809435e-01  1.4670416445475831e-01  1.4726901324208264e-01  1.4831831728002309e-01  1.4978934468880245e-01  1.5158961411045735e-01  1.5361339377651839e-01  1.5575637684799884e-01  1.5792564828384989e-01  1.6004456144266146e-01  1.6205368094344064e-01  1.6390933628212420e-01  1.6558106052948687e-01  1.6704874587584692e-01  1.6829997172409472e-01  1.6932770894533558e-01  1.7012845899760107e-01  1.7070081680894311e-01  1.7104442523481128e-01  1.7115929710521685e-01  1.5806845820127857e-01  1.5794322031033578e-01  1.5757049668972403e-01  1.5696910897801236e-01  1.5617141780329624e-01  1.5522382664825643e-01  1.5418679713902533e-01  1.5313385371913354e-01  1.5214884921731348e-01  1.5132080411108517e-01  1.5073606868005932e-01  1.5046846553022911e-01  1.5056923293621691e-01  1.5105940155957562e-01  1.5192701089351976e-01  1.5313013324624444e-01  1.5460467662115507e-01  1.5627447410824447e-01  1.5806094555777009e-01  1.5989048502121644e-01  1.6169895218906136e-01  1.6343357334386668e-01  1.6505297256292598e-01  1.6652607960165