<?xml version="1.0"?>
<VTKFile type="UnstructuredGrid"  version="0.1"  >
<UnstructuredGrid>
<Piece  NumberOfPoints="961" NumberOfCells="1800">
<Points>
<DataArray  type="Float64"  NumberOfComponents="3"  format="ascii">0 0 0  0.03333333333333333 0 0  0.06666666666666667 0 0  0.1 0 0  0.1333333333333333 0 0  0.1666666666666667 0 0  0.2 0 0  0.2333333333333333 0 0  0.2666666666666667 0 0  0.3 0 0  0.3333333333333333 0 0  0.3666666666666666 0 0  0.4 0 0  0.4333333333333333 0 0  0.4666666666666667 0 0  0.5 0 0  0.5333333333333333 0 0  0.5666666666666667 0 0  0.6 0 0  0.6333333333333333 0 0  0.6666666666666666 0 0  0.7 0 0  0.7333333333333333 0 0  0.7666666666666667 0 0  0.8 0 0  0.8333333333333334 0 0  0.8666666666666667 0 0  0.9 0 0  0.9333333333333333 0 0  0.9666666666666667 0 0  1 0 0  0 0.03333333333333333 0  0.03333333333333333 0.03333333333333333 0  0.06666666666666667 0.03333333333333333 0  0.1 0.03333333333333333 0  0.1333333333333333 0.03333333333333333 0  0.1666666666666667 0.03333333333333333 0  0.2 0.03333333333333333 0  0.2333333333333333 0.03333333333333333 0  0.2666666666666667 0.03333333333333333 0  0.3 0.03333333333333333 0  0.3333333333333333 0.03333333333333333 0  0.3666666666666666 0.03333333333333333 0  0.4 0.03333333333333333 0  0.4333333333333333 0.03333333333333333 0  0.4666666666666667 0.03333333333333333 0  0.5 0.03333333333333333 0  0.5333333333333333 0.03333333333333333 0  0.5666666666666667 0.03333333333333333 0  0.6 0.03333333333333333 0  0.6333333333333333 0.03333333333333333 0  0.6666666666666666 0.03333333333333333 0  0.7 0.03333333333333333 0  0.7333333333333333 0.03333333333333333 0  0.7666666666666667 0.03333333333333333 0  0.8 0.03333333333333333 0  0.8333333333333334 0.03333333333333333 0  0.8666666666666667 0.03333333333333333 0  0.9 0.03333333333333333 0  0.9333333333333333 0.03333333333333333 0  0.9666666666666667 0.03333333333333333 0  1 0.03333333333333333 0  0 0.06666666666666667 0  0.03333333333333333 0.06666666666666667 0  0.06666666666666667 0.06666666666666667 0  0.1 0.06666666666666667 0  0.1333333333333333 0.06666666666666667 0  0.1666666666666667 0.06666666666666667 0  0.2 0.06666666666666667 0  0.2333333333333333 0.06666666666666667 0  0.2666666666666667 0.06666666666666667 0  0.3 0.06666666666666667 0  0.3333333333333333 0.06666666666666667 0  0.3666666666666666 0.06666666666666667 0  0.4 0.06666666666666667 0  0.4333333333333333 0.06666666666666667 0  0.4666666666666667 0.06666666666666667 0  0.5 0.06666666666666667 0  0.5333333333333333 0.06666666666666667 0  0.5666666666666667 0.06666666666666667 0  0.6 0.06666666666666667 0  0.6333333333333333 0.06666666666666667 0  0.6666666666666666 0.06666666666666667 0  0.7 0.06666666666666667 0  0.7333333333333333 0.06666666666666667 0  0.7666666666666667 0.06666666666666667 0  0.8 0.06666666666666667 0  0.8333333333333334 0.06666666666666667 0  0.8666666666666667 0.06666666666666667 0  0.9 0.06666666666666667 0  0.9333333333333333 0.06666666666666667 0  0.9666666666666667 0.06666666666666667 0  1 0.06666666666666667 0  0 0.1 0  0.03333333333333333 0.1 0  0.06666666666666667 0.1 0  0.1 0.1 0  0.1333333333333333 0.1 0  0.1666666666666667 0.1 0  0.2 0.1 0  0.2333333333333333 0.1 0  0.2666666666666667 0.1 0  0.3 0.1 0  0.3333333333333333 0.1 0  0.3666666666666666 0.1 0  0.4 0.1 0  0.4333333333333333 0.1 0  0.4666666666666667 0.1 0  0.5 0.1 0  0.5333333333333333 0.1 0  0.5666666666666667 0.1 0  0.6 0.1 0  0.6333333333333333 0.1 0  0.6666666666666666 0.1 0  0.7 0.1 0  0.7333333333333333 0.1 0  0.7666666666666667 0.1 0  0.8 0.1 0  0.8333333333333334 0.1 0  0.8666666666666667 0.1 0  0.9 0.1 0  0.9333333333333333 0.1 0  0.9666666666666667 0.1 0  1 0.1 0  0 0.1333333333333333 0  0.03333333333333333 0.1333333333333333 0  0.06666666666666667 0.1333333333333333 0  0.1 0.1333333333333333 0  0.1333333333333333 0.1333333333333333 0  0.1666666666666667 0.1333333333333333 0  0.2 0.1333333333333333 0  0.2333333333333333 0.1333333333333333 0  0.2666666666666667 0.1333333333333333 0  0.3 0.1333333333333333 0  0.3333333333333333 0.1333333333333333 0  0.3666666666666666 0.1333333333333333 0  0.4 0.1333333333333333 0  0.4333333333333333 0.1333333333333333 0  0.4666666666666667 0.1333333333333333 0  0.5 0.1333333333333333 0  0.5333333333333333 0.1333333333333333 0  0.5666666666666667 0.1333333333333333 0  0.6 0.1333333333333333 0  0.6333333333333333 0.1333333333333333 0  0.6666666666666666 0.1333333333333333 0  0.7 0.1333333333333333 0  0.7333333333333333 0.1333333333333333 0  0.7666666666666667 0.1333333333333333 0  0.8 0.1333333333333333 0  0.8333333333333334 0.1333333333333333 0  0.8666666666666667 0.1333333333333333 0  0.9 0.1333333333333333 0  0.9333333333333333 0.1333333333333333 0  0.9666666666666667 0.1333333333333333 0  1 0.1333333333333333 0  0 0.1666666666666667 0  0.03333333333333333 0.1666666666666667 0  0.06666666666666667 0.1666666666666667 0  0.1 0.1666666666666667 0  0.1333333333333333 0.1666666666666667 0  0.1666666666666667 0.1666666666666667 0  0.2 0.1666666666666667 0  0.2333333333333333 0.1666666666666667 0  0.2666666666666667 0.1666666666666667 0  0.3 0.1666666666666667 0  0.3333333333333333 0.1666666666666667 0  0.3666666666666666 0.1666666666666667 0  0.4 0.1666666666666667 0  0.4333333333333333 0.1666666666666667 0  0.4666666666666667 0.1666666666666667 0  0.5 0.1666666666666667 0  0.5333333333333333 0.1666666666666667 0  0.5666666666666667 0.1666666666666667 0  0.6 0.1666666666666667 0  0.6333333333333333 0.1666666666666667 0  0.6666666666666666 0.1666666666666667 0  0.7 0.1666666666666667 0  0.7333333333333333 0.1666666666666667 0  0.7666666666666667 0.1666666666666667 0  0.8 0.1666666666666667 0  0.8333333333333334 0.1666666666666667 0  0.8666666666666667 0.1666666666666667 0  0.9 0.1666666666666667 0  0.9333333333333333 0.1666666666666667 0  0.9666666666666667 0.1666666666666667 0  1 0.1666666666666667 0  0 0.2 0  0.03333333333333333 0.2 0  0.06666666666666667 0.2 0  0.1 0.2 0  0.1333333333333333 0.2 0  0.1666666666666667 0.2 0  0.2 0.2 0  0.2333333333333333 0.2 0  0.2666666666666667 0.2 0  0.3 0.2 0  0.3333333333333333 0.2 0  0.3666666666666666 0.2 0  0.4 0.2 0  0.4333333333333333 0.2 0  0.4666666666666667 0.2 0  0.5 0.2 0  0.5333333333333333 0.2 0  0.5666666666666667 0.2 0  0.6 0.2 0  0.6333333333333333 0.2 0  0.6666666666666666 0.2 0  0.7 0.2 0  0.7333333333333333 0.2 0  0.7666666666666667 0.2 0  0.8 0.2 0  0.8333333333333334 0.2 0  0.8666666666666667 0.2 0  0.9 0.2 0  0.9333333333333333 0.2 0  0.9666666666666667 0.2 0  1 0.2 0  0 0.2333333333333333 0  0.03333333333333333 0.2333333333333333 0  0.06666666666666667 0.2333333333333333 0  0.1 0.2333333333333333 0  0.1333333333333333 0.2333333333333333 0  0.1666666666666667 0.2333333333333333 0  0.2 0.2333333333333333 0  0.2333333333333333 0.2333333333333333 0  0.2666666666666667 0.2333333333333333 0  0.3 0.2333333333333333 0  0.3333333333333333 0.2333333333333333 0  0.3666666666666666 0.2333333333333333 0  0.4 0.2333333333333333 0  0.4333333333333333 0.2333333333333333 0  0.4666666666666667 0.2333333333333333 0  0.5 0.2333333333333333 0  0.5333333333333333 0.2333333333333333 0  0.5666666666666667 0.2333333333333333 0  0.6 0.2333333333333333 0  0.6333333333333333 0.2333333333333333 0  0.6666666666666666 0.2333333333333333 0  0.7 0.2333333333333333 0  0.7333333333333333 0.2333333333333333 0  0.7666666666666667 0.2333333333333333 0  0.8 0.2333333333333333 0  0.8333333333333334 0.2333333333333333 0  0.8666666666666667 0.2333333333333333 0  0.9 0.2333333333333333 0  0.9333333333333333 0.2333333333333333 0  0.9666666666666667 0.2333333333333333 0  1 0.2333333333333333 0  0 0.2666666666666667 0  0.03333333333333333 0.2666666666666667 0  0.06666666666666667 0.2666666666666667 0  0.1 0.2666666666666667 0  0.1333333333333333 0.2666666666666667 0  0.1666666666666667 0.2666666666666667 0  0.2 0.2666666666666667 0  0.2333333333333333 0.2666666666666667 0  0.2666666666666667 0.2666666666666667 0  0.3 0.2666666666666667 0  0.3333333333333333 0.2666666666666667 0  0.3666666666666666 0.2666666666666667 0  0.4 0.2666666666666667 0  0.4333333333333333 0.2666666666666667 0  0.4666666666666667 0.2666666666666667 0  0.5 0.2666666666666667 0  0.5333333333333333 0.2666666666666667 0  0.5666666666666667 0.2666666666666667 0  0.6 0.2666666666666667 0  0.6333333333333333 0.2666666666666667 0  0.6666666666666666 0.2666666666666667 0  0.7 0.2666666666666667 0  0.7333333333333333 0.2666666666666667 0  0.7666666666666667 0.2666666666666667 0  0.8 0.2666666666666667 0  0.8333333333333334 0.2666666666666667 0  0.8666666666666667 0.2666666666666667 0  0.9 0.2666666666666667 0  0.9333333333333333 0.2666666666666667 0  0.9666666666666667 0.2666666666666667 0  1 0.2666666666666667 0  0 0.3 0  0.03333333333333333 0.3 0  0.06666666666666667 0.3 0  0.1 0.3 0  0.1333333333333333 0.3 0  0.1666666666666667 0.3 0  0.2 0.3 0  0.2333333333333333 0.3 0  0.2666666666666667 0.3 0  0.3 0.3 0  0.3333333333333333 0.3 0  0.3666666666666666 0.3 0  0.4 0.3 0  0.4333333333333333 0.3 0  0.4666666666666667 0.3 0  0.5 0.3 0  0.5333333333333333 0.3 0  0.5666666666666667 0.3 0  0.6 0.3 0  0.6333333333333333 0.3 0  0.6666666666666666 0.3 0  0.7 0.3 0  0.7333333333333333 0.3 0  0.7666666666666667 0.3 0  0.8 0.3 0  0.8333333333333334 0.3 0  0.8666666666666667 0.3 0  0.9 0.3 0  0.9333333333333333 0.3 0  0.9666666666666667 0.3 0  1 0.3 0  0 0.3333333333333333 0  0.03333333333333333 0.3333333333333333 0  0.06666666666666667 0.3333333333333333 0  0.1 0.3333333333333333 0  0.1333333333333333 0.3333333333333333 0  0.1666666666666667 0.3333333333333333 0  0.2 0.3333333333333333 0  0.2333333333333333 0.3333333333333333 0  0.2666666666666667 0.3333333333333333 0  0.3 0.3333333333333333 0  0.3333333333333333 0.3333333333333333 0  0.3666666666666666 0.3333333333333333 0  0.4 0.3333333333333333 0  0.4333333333333333 0.3333333333333333 0  0.4666666666666667 0.3333333333333333 0  0.5 0.3333333333333333 0  0.5333333333333333 0.33333333333333
[...]
<PointData  Scalars="f_18-2"> 
<DataArray  type="Float64"  Name="f_18-2"  format="ascii">1.5991122268808750e-01  1.5979021235024091e-01  1.5954107976294904e-01  1.5916358727259289e-01  1.5867810021105661e-01  1.5811675499178532e-01  1.5752013809814697e-01  1.5693472788671556e-01  1.5640997809351453e-01  1.5599483454994711e-01  1.5573384495627091e-01  1.5566326395944327e-01  1.5580770573994723e-01  1.5617790637091908e-01  1.5676999965762980e-01  1.5756641716350828e-01  1.5853819091146035e-01  1.5964817902635889e-01  1.6085462625115393e-01  1.6211452078252941e-01  1.6338636619153557e-01  1.6463218033980009e-01  1.6581870295948445e-01  1.6691790951099797e-01  1.6790698700541531e-01  1.6876793857910030e-01  1.6948696111692910e-01  1.7005368632296633e-01  1.7046024815502619e-01  1.7069970954738961e-01  1.7076153931276428e-01  1.5969095956920096e-01  1.5959768997324172e-01  1.5934722672171001e-01  1.5895748104080784e-01  1.5845338792537800e-01  1.5786897030192143e-01  1.5724637026295807e-01  1.5663383302041789e-01  1.5608287401074361e-01  1.5564469217221932e-01  1.5536605363932085e-01  1.5528509698948351e-01  1.5542768544915400e-01  1.5580495561435692e-01  1.5641253545600006e-01  1.5723156204126232e-01  1.5823123882798654e-01  1.5937237498426460e-01  1.6061123646693662e-01  1.6190311351919612e-01  1.6320520345663847e-01  1.6447863139664784e-01  1.6568961743368205e-01  1.6680991732311601e-01  1.6781671664012437e-01  1.6869216283002353e-01  1.6942269584798714e-01  1.6999830497822976e-01  1.7041182577105163e-01  1.7065851410083407e-01  1.7073703660989695e-01  1.5914185687876833e-01  1.5904687204830051e-01  1.5877445510212621e-01  1.5834342429008502e-01  1.5778154268529143e-01  1.5712614102939426e-01  1.5642349016140469e-01  1.5572706493351271e-01  1.5509469197439288e-01  1.5458458756176749e-01  1.5425051165590314e-01  1.5413659640109056e-01  1.5427270509020721e-01  1.5467126640042647e-01  1.5532629597201641e-01  1.5621480455831541e-01  1.5730019754581073e-01  1.5853683955333994e-01  1.5987483669340360e-01  1.6126425861943930e-01  1.6265834533413986e-01  1.6401556802261749e-01  1.6530064642587361e-01  1.6648474608890917e-01  1.6754510994723160e-01  1.6846435631912793e-01  1.6922963143888708e-01  1.6983176321510005e-01  1.7026454584461542e-01  1.7052432048550911e-01  1.7061009042732780e-01  1.5825890541897056e-01  1.5815029630888081e-01  1.5783416378719045e-01  1.5732951694820341e-01  1.5666670043613673e-01  1.5588747793151661e-01  1.5504459342443153e-01  1.5420029584664213e-01  1.5342342072673562e-01  1.5278477387205625e-01  1.5235093627495211e-01  1.5217719768555818e-01  1.5230092433839520e-01  1.5273693237015279e-01  1.5347610498224482e-01  1.5448760395319427e-01  1.5572397705691890e-01  1.5712774745121372e-01  1.5863795977464881e-01  1.6019556100355536e-01  1.6174710085572935e-01  1.6324675715495410e-01  1.6465699602189485e-01  1.6594827834296380e-01  1.6709819751437108e-01  1.6809035204610071e-01  1.6891316805425072e-01  1.6955881460916969e-01  1.7002230617791089e-01  1.7030085004062065e-01  1.7039341235740493e-01  1.5705632414954560e-01  1.5692561041583145e-01  1.5654330872551511e-01  1.5592929907022096e-01  1.5511683375271343e-01  1.5415310212369310e-01  1.5309948441270999e-01  1.5203071854791433e-01  1.5103212794519535e-01  1.5019416957002144e-01  1.4960410422609122e-01  1.4933564677628927e-01  1.4943869926458039e-01  1.4993197992444593e-01  1.5080087522259808e-01  1.5200117967699647e-01  1.5346738137959404e-01  1.5512287406679379e-01  1.5688946219670585e-01  1.5869447717124530e-01  1.6047500964830308e-01  1.6217961580850385e-01  1.6376822094243287e-01  1.6521095211493245e-01  1.6648647419473403e-01  1.6758021450429450e-01  1.6848270369672494e-01  1.6918815029109255e-01  1.6969329640627007e-01  1.6999655376784120e-01  1.7009736492337593e-01  1.5556100144631924e-01  1.5539998925551524e-01  1.5492743686234076e-01  1.5416417698713458e-01  1.5314625172664278e-01  1.5192664558121105e-01  1.5057700417383291e-01  1.4918827668639495e-01  1.4786878531044001e-01  1.4673805481069363e-01  1.4591537820524339e-01  1.4550396149945236e-01  1.4557411520362884e-01  1.4615076016672043e-01  1.4720983981218061e-01  1.4868496051080227e-01  1.5048154694409591e-01  1.5249341530969740e-01  1.5461702848322420e-01  1.5676092831804381e-01  1.5885019338375750e-01  1.6082712493053408e-01  1.6264966516543142e-01  1.6428877420233787e-01  1.6572556644722056e-01  1.6694864550038255e-01  1.6795183243339845e-01  1.6873234023269909e-01  1.6928937434736971e-01  1.6962310526497740e-01  1.6973394399767222e-01  1.5381240315532244e-01  1.5361250428161219e-01  1.5302364298039806e-01  1.5206678482039968e-01  1.5077951564520403e-01  1.4921960291935629e-01  1.4746926155593537e-01  1.4563877213412654e-01  1.4386700700322683e-01  1.4231542016237053e-01  1.4115244844778713e-01  1.4052850165951433e-01  1.4054729792186602e-01  1.4124370309382273e-01  1.4257739548053522e-01  1.4444506669270729e-01  1.4670553704789294e-01  1.4920755403378083e-01  1.5181150965783535e-01  1.5440150952694062e-01  1.5688893084550051e-01  1.5921059227065704e-01  1.6132443905200930e-01  1.6320463537871255e-01  1.6483703509872041e-01  1.6621540827209216e-01  1.6733848414239150e-01  1.6820772961506394e-01  1.6882573649493779e-01  1.6919509074194439e-01  1.6931761744563117e-01  1.5186401850607117e-01  1.5161633055708756e-01  1.5088366294067190e-01  1.4968516793652917e-01  1.4805694201382319e-01  1.4605809841851702e-01  1.4377903628705724e-01  1.4135056163067292e-01  1.3895020430911578e-01  1.3679894778216836e-01  1.3514061081292242e-01  1.3420163946187730e-01  1.3414095305417550e-01  1.3500965782881530e-01  1.3673946381220173e-01  1.3916537447366639e-01  1.4207121732259045e-01  1.4523738386717891e-01  1.4847415782744630e-01  1.5163587013181301e-01  1.5462067358767986e-01  1.5736326276095006e-01  1.5982582507910370e-01  1.6198978723651108e-01  1.6384918386454081e-01  1.6540567609201554e-01  1.6666496240225476e-01  1.6763426769371670e-01  1.6832062938224401e-01  1.6872975939119306e-01  1.6886532307437471e-01  1.4978482886224603e-01  1.4948068088671915e-01  1.4857692784223039e-01  1.4708760957809247e-01  1.4504186222365104e-01  1.4249302185533444e-01  1.3953267003390010e-01  1.3630928167027723e-01  1.3304663838095873e-01  1.3004901450551720e-01  1.2767511354834796e-01  1.2627262527328870e-01  1.2609037102135232e-01  1.2720596879023285e-01  1.2950470993747853e-01  1.3272043530256311e-01  1.3651730423836325e-01  1.4057261853401581e-01  1.4462851553664577e-01  1.4850597245104252e-01  1.5209461663873095e-01  1.5533461108314789e-01  1.5819985541863485e-01  1.6068522944449434e-01  1.6279766812769589e-01  1.6455015473086293e-01  1.6595777447496085e-01  1.6703517124292674e-01  1.6779493778089358e-01  1.6824661883394953e-01  1.6839611815139044e-01  1.4765987259964422e-01  1.4729182323067688e-01  1.4619295486443373e-01  1.4436751595646502e-01  1.4182944005084958e-01  1.3861450095478756e-01  1.3480205567577772e-01  1.3054931054769633e-01  1.2613260453053007e-01  1.2197095126259461e-01  1.1859317231874092e-01  1.1653057496832993e-01  1.1616863111854463e-01  1.1762595277331832e-01  1.2071820702268567e-01  1.2502463214689255e-01  1.3002627893336283e-01  1.3524771413288714e-01  1.4033956632052952e-01  1.4508882714812893e-01  1.4938757112392190e-01  1.5319480526863552e-01  1.5650755709369968e-01  1.5934260260389257e-01  1.6172561147350489e-01  1.6368478025311256e-01  1.6524712021483384e-01  1.6643632267077677e-01  1.6727155811993080e-01  1.6776682011184840e-01  1.6793058130894245e-01  1.4558899146559287e-01  1.4515225945282975e-01  1.4384197591471143e-01  1.4164702348637123e-01  1.3855573578283240e-01  1.3457036862571115e-01  1.2973853551488854e-01  1.2421184137770949e-01  1.1832603598448414e-01  1.1265519645973361e-01  1.0796408548097212e-01  1.0503257843278080e-01  1.0442519231122720e-01  1.0631559012409590e-01  1.1043356253166761e-01  1.1615418377069082e-01  1.2270385805814153e-01  1.2939070091000460e-01  1.3574231665639130e-01  1.4151228449686248e-01  1.4661198401143460e-01  1.5103822638373740e-01  1.5482601712030034e-01  1.5802401166803021e-01  1.6068286605609330e-01  1.6284977254608182e-01  1.6456591057268652e-01  1.6586532498924345e-01  1.6677450921375966e-01  1.6731231561951443e-01  1.6748999016468813e-01  1.4368286054297816e-01  1.4317702391153930e-01  1.4165227217133347e-01  1.3907691917526080e-01  1.3540339986199537e-01  1.3058373186514224e-01  1.2461288721578459e-01  1.1762307864805686e-01  1.1002189619880043e-01  1.0258492102157678e-01  9.6369887091120265e-02  9.2438118871110142e-02  9.1538300646984497e-02  9.3901662192830054e-02  9.9181265663225313e-02  1.0653923180812278e-01  1.1490008173466988e-01  1.2329121418053574e-01  1.3107604036812198e-01  1.3797015004735352e-01  1.4392119003169151e-01  1.4898407757258475e-01  1.5324706243944330e-01  1.5680009067913031e-01  1.5972404497188897e-01  1.6208785610468759e-01  1.6394822793944602e-01  1.6535017896452106e-01  1.6632777437847066e-01  1.6690480371282665e-01  1.6709530091007643e-01  1.4205569925042272e-01  1.4148627476863387e-01  1.3976259976432592e-01  1.3682956341649929e-01  1.3259739781101035e-01  1.2695684965901102e-01  1.1983678831298147e-01  1.1134508311542775e-01  1.0197985305566577e-01  9.2755484277271080e-02  8.5040491840654875e-02  8.0147639497120463e-02  7.8959069677570409e-02  8.1746914924252193e-02  8.8125311294022290e-02  9.7097962278475572e-02  1.0730239476392227e-01  1.1745178923760631e-01  1.2670546396802354e-01  1.3472664866850717e-01  1.4150659301358726e-01  1.4717134936009857e-01  1.5187221471851972e-01  1.5574569654456735e-01  1.5890507781771379e-01  1.6144157195052955e-01  1.6342722929607509e-01  1.6491761519841003e-01  1.6595392031234132e-01  1.6656451162091979e-01  1.6676598461080561e-01  1.4081480175487476e-01  1.4019411971638937e-01  1.3830888474518646e-01  1.3508204496199058e-01  1.3038345535534632e-01  1.2404408934215824e-01  1.1592850375625252e-01  1.0612579830262356e-01  9.5235005489670704e-02  8.4508075364310001e-02  7.5582670619732756e-02  6.9941925366729024e-02  6.8524623729293355e-02  7.1617429774714539e-02  7.8836455913467399e-02  8.9113256929195597e-02  1.0087661423422453e-01  1.1255525736104385e-01  1.2309609393670061e-01  1.3209536822816237e-01  1.3958045169719810e-01  1.4574565491816124e-01  1.5080307775584378e-01  1.5493305334183621e-01  1.5827835256552311e-01  1.6094981239071612e-01  1.6303262762756271e-01  1.6459120115714543e-01  1.6567259654448113e-01  1.6630891013593116e-01  1.6651881049287404e-01  1.4004816667427369e-01  1.3939496042951727e-01  1.3740636829040184e-01  1.3399009326334257e-01  1.2898751754493118e-01  1.2218687182597543e-01  1.1340674752482424e-01  1.0272548947056502e-01  9.0821920849937482e-02  7.9122567345165165e-02  6.9442648030876936e-02  6.3351834597860882e-02  6.1794772878346810e-02  6.5055121868503638e-02  7.2766313694099125e-02  8.3847173356451948e-02  9.6615936099778976e-02  1.0931241696878617e-01  1.2072322300100047e-01  1.3038412167686142e-01  1.3834182946032750e-01  1.4483788748067611e-01  1.5012778634463483e-01  1.5442302393792526e-01  1.5788699349081697e-01  1.6064398492111925e-01  1.6278804253962784e-01  1.6438943274284251e-01  1.6549907313671050e-01  1.6615148949276184e-01  1.6636669675870311e-01  1.3981265894843217e-01  1.3915011848158190e-01  1.3713104085581429e-01  1.3365869496093868e-01  1.2856596369639275e-01  1.2162768296044944e-01  1.1264640809567940e-01  1.0169303111461228e-01  8.9467466070223559e-02  7.7452260943779799e-02  6.7524102059070751e-02  6.1283371357906222e-02  5.9675142821465674e-02  6.2978873742688499e-02  7.0832181937424105e-02  8.2152721474664639e-02  9.5229694955497116e-02  1.0824711284114719e-01  1.1993926343677878e-01  1.2981810003878122e-01  1.3793295328148625e-01  1.4453919605770704e-01  1.4990631043658589e-01  1.5425623061722749e-01  1.5775933468676781e-01  1.6054446264780695e-01  1.6270863569953736e-01  1.6432408250734168e-01  1.6544300638815784e-01  1.6610074391959576e-01  1.6631776343488727e-01  1.4012565864848264e-01  1.3947827433773682e-01  1.3750592145487822e-01  1.3411946853770662e-01  1.2916574621961219e-01  1.2243955074087660e-01  1.1376158974529436e-01  1.0319778749624306e-01  9.1397392848141246e-02  7.9759378807603518e-02  7.0096502325164109e-02  6.3996021825222418e-02  6.2417321498733358e-02  6.5643235605116118e-02  7.3294752752156675e-02  8.4282884401198799e-02  9.6938544598835871e-02  1.0952951244701634e-01  1.2086243053762741e-01  1.3047419737811219e-01  1.3840262850647680e-01  1.4488076499305858e-01  1.5015904635431657e-01  1.5444640819497726e-01  1.5790490998327208e-01  1.6065807592672154e-01  1.6279947742524339e-01  1.6439908079782928e-01  1.6550761633078978e-01  1.6615950276414196e-01  1.6637471128173356e-01  1.4096254610803335e-01  1.4035259583181173e-01  1.3849695057927167e-01  1.3532389853297405e-01  1.3071241294408634e-01  1.2450458762505745e-01  1.1656950635273229e-01  1.0697792595940366e-01  9.6280888694558836e-02  8.5679629518049971e-02  7.6797876979729784e-02  7.1141264415143374e-02  6.9672667214526765e-02  7.2681215914772390e-02  7.9769893865495073e-02  8.9867428658326615e-02  1.0143007671822421e-01  1.1293048474953546e-01  1.2334201484210006e-01  1.3225889173487465e-01  1.3969343263856213e-01  1.4582664670399320e-01  1.5086278019933408e-01  1.5497806978721626e-01  1.5831305700838941e-01  1.6097724663024049e-01  1.6305498744059127e-01  1.6461013554846235e-01  1.6568940913023880e-01  1.6632470598651161e-01  1.6653461396369115e-01  1.4226072872614354e-01  1.4170541823531177e-01  1.4001992483743353e-01  1.3715516366260017e-01  1.3303146168665514e-01  1.2755191572332295e-01  1.2065145016060143e-01  1.1242074515439728e-01  1.0330701640701155e-01  9.4261792586344526e-02  8.6621680006258625e-02  8.1710501174012434e-02  8.0435127619558081e-02  8.3079364713841961e-02  8.9259266410815025e-02  9.7993069157001525e-02  1.0795619356187644e-01  1.1790348588940590e-01  1.2701253163183354e-01  1.3493919727547660e-01  1.4165828629121049e-01  1.4728257815980325e-01  1.5195550481102185e-01  1.5580924090293574e-01  1.5895453192193304e-01  1.6148098051645848e-01  1.6345957161316807e-01  1.6494516314090887e-01  1.6597849088561661e-01  1.6658765796255393e-01  1.6678915365110117e-01  1.4392895833982544e-01  1.4343891563908837e-01  1.4195579505498940e-01  1.3945329602154163e-01  1.3589254184019126e-01  1.3123591770146079e-01  1.2548369927520603e-01  1.1875474948007664e-01  1.1141373549541927e-01  1.0417552949083399e-01  9.8053579596605642e-02  9.4102480473425801e-02  9.3089400128943872e-02  9.5268158412474421e-02  1.0031457645656155e-01  1.0742140080185228e-01  1.1555004956381792e-01  1.2375524255557054e-01  1.3140643064950139e-01  1.3820923245072814e-01  1.4409774468916497e-01  1.4911670985456085e-01  1.5334816407221272e-01  1.5687831924708476e-01  1.5978565382079354e-01  1.6213746154274963e-01  1.6398931208455894e-01  1.6538544665633914e-01  1.6635941975054780e-01  1.6693472122672265e-01  1.6712526602696423e-01  1.4585933687446154e-01  1.4543858896735767e-01  1.4416911006364877e-01  1.4204379080775303e-01  1.3905700992584100e-01  1.3521768006454171e-01  1.3057601181263045e-01  1.2527310443037129e-01  1.1961277033714166e-01  1.1412041803180847e-01  1.0951726541615073e-01  1.0656601694220290e-01  1.0584227617923508e-01  1.0754724424677645e-01  1.1144472838206453e-01  1.1694442834810122e-01  1.2330051470077177e-01  1.2983460404691122e-01  1.3607327839345240e-01  1.4176153511106560e-01  1.4680171791590810e-01  1.5118404386424786e-01  1.5493920081174714e-01  1.5811294004024237e-01  1.6075385327423850e-01  1.6290762923266794e-01  1.6461435705568175e-01  1.6590730919341659e-01  1.6681245903966749e-01  1.6734834938194751e-01  1.6752610485747166e-01  1.4793917723082561e-01  1.4758623640284202e-01  1.4652454455985686e-01  1.4476085846225861e-01  1.4231246194695063e-01  1.3921811217598082e-01  1.3555676894563429e-01  1.3147661424241333e-01  1.2723143681154436e-01  1.2320605256313825e-01  1.1989581891497295e-01  1.1781498051990946e-01  1.1735511386916309e-01  1.1865898780198408e-01  1.2157382732347351e-01  1.2570745515057560e-01  1.3055932945548282e-01  1.3566041967817566e-01  1.4065921497513256e-01  1.4533728539128127e-01  1.4958150441170751e-01  1.5334694228116233e-01  1.5662775675754484e-01  1.5943855676199964e-01  1.6180333468275099e-01  1.6374899341135929e-01  1.6530156570290599e-01  1.6648402557807426e-01  1.6731504671555933e-01  1.6780832053204159e-01  1.6797220140960145e-01  1.5006063008927178e-01  1.4977010511366934e-01  1.4889856978187715e-01  1.4746132495505548e-01  1.4548878217316263e-01  1.4303463495232888e-01  1.4018806954140181e-01  1.3708968479693182e-01  1.3394764625703529e-01  1.3104410616077211e-01  1.2871592484437608e-01  1.2729873249794668e-01  1.2704474635975138e-01  1.2804841925353336e-01  1.3021760530990456e-01  1.3330599123794226e-01  1.3698986842162689e-01  1.4095077936041486e-01  1.4493012365321867e-01  1.4874628916005544e-01  1.5228621328584774e-01  1.5548777408504399e-01  1.5832297828827191e-01  1.6078512533531386e-01  1.6287984153866211e-01  1.6461905031962498e-01  1.6601700188319771e-01  1.6708770441513798e-01  1.6784329354177219e-01  1.6829302523843395e-01  1.6844268563699627e-01  1.5212713308767770e-01  1.5189135160786973e-01  1.5118574716848138e-01  1.5002983822881713e-01  1.4845966397501179e-01  1.4653323261192491e-01  1.4433775219028824e-01  1.4199747411071148e-01  1.3967924343130450e-01  1.3759030154587332e-01  1.3596140879628921e-01  1.3501176783503660e-01  1.3490221099537023e-01  1.3569405903186393e-01  1.3733306740158821e-01  1.3966694465600088e-01  1.4248781331359403e-01  1.4557977506311906e-01  1.4875377482463931e-01  1.5186338924113985e-01  1.5480556754816691e-01  1.5751373475784375e-01  1.5994886342592973e-01  1.6209126908857047e-01  1.6393400864934657e-01  1.6547791270761464e-01  1.6672799567317959e-01  1.6769093619265202e-01  1.6837335565936948e-01  1.6878068281937778e-01  1.6891645203233630e-01  1.5405673323940339e-01  1.5386706932447050e-01  1.5330066720822655e-01  1.5237823388081337e-01  1.5113652573460432e-01  1.4963157015777021e-01  1.4794239526407188e-01  1.4617411633137059e-01  1.4445835376273650e-01  1.4294809302317377e-01  1.4180416837057097e-01  1.4117287645509269e-01  1.4115900370901618e-01  1.4180325420570147e-01  1.4307359626036467e-01  1.4487466417178899e-01  1.4707106123800889e-01  1.4951480925634639e-01  1.5206766141045511e-01  1.5461395100962147e-01  1.5706470769072117e-01  1.5935613551291483e-01  1.6144545957906234e-01  1.6330611080496898e-01  1.6492325187365148e-01  1.6629003285545432e-01  1.6740464384662657e-01  1.6826809124124856e-01  1.6888258103990050e-01  1.6925039714370840e-01  1.6937318577938890e-01  1.5578291329445149e-01  1.5563071994549629e-01  1.5517704701808388e-01  1.5444193075140061e-01  1.5346011271412194e-01  1.5228265073116631e-01  1.5097836960816083e-01  1.4963429981150311e-01  1.4835384940561860e-01  1.4725126097739766e-01  1.4644134470809481e-01  1.4602495396348894e-01  1.4607299410585164e-01  1.4661371331693399e-01  1.4762795198572182e-01  1.4905431868392999e-01  1.5080228230637702e-01  1.5276837000663426e-01  1.5485056629763969e-01  1.5695808256471197e-01  1.5901612676113364e-01  1.6096681185037928e-01  1.6276772051170724e-01  1.6438937752704780e-01  1.6581244650424320e-01  1.6702509821610051e-01  1.6802075021153079e-01  1.6879623501301150e-01  1.6935038565150320e-01  1.6968300651523166e-01  1.6979420542515503e-01  1.5725372764999962e-01  1.5713092157530537e-01  1.5676534767904612e-01  1.5617535863649909e-01  1.5539251859317407e-01  1.5446211078597866e-01  1.5344317179520126e-01  1.5240753914261418e-01  1.5143719588790677e-01  1.5061923501165406e-01  1.5003819281054892e-01  1.4976639114336543e-01  1.4985407206559226e-01  1.5032191085722654e-01  1.5115827587239958e-01  1.5232219076120235e-01  1.5375098981246155e-01  1.5537021657212688e-01  1.5710309874097167e-01  1.5887778688526694e-01  1.6063174840720648e-01  1.6231361846185655e-01  1.6388321645254111e-01  1.6531046142065