<?xml version="1.0"?>
<VTKFile type="UnstructuredGrid"  version="0.1"  >
<UnstructuredGrid>
<Piece  NumberOfPoints="441" NumberOfCells="800">
<Points>
<DataArray  type="Float64"  NumberOfComponents="3"  format="ascii">-2 -2 0  -1.8 -2 0  -1.6 -2 0  -1.4 -2 0  -1.2 -2 0  -1 -2 0  -0.8 -2 0  -0.6000000000000001 -2 0  -0.3999999999999999 -2 0  -0.2 -2 0  0 -2 0  0.2000000000000002 -2 0  0.3999999999999999 -2 0  0.6000000000000001 -2 0  0.7999999999999998 -2 0  1 -2 0  1.2 -2 0  1.4 -2 0  1.6 -2 0  1.8 -2 0  2 -2 0  -2 -1.8 0  -1.8 -1.8 0  -1.6 -1.8 0  -1.4 -1.8 0  -1.2 -1.8 0  -1 -1.8 0  -0.8 -1.8 0  -0.6000000000000001 -1.8 0  -0.3999999999999999 -1.8 0  -0.2 -1.8 0  0 -1.8 0  0.2000000000000002 -1.8 0  0.3999999999999999 -1.8 0  0.6000000000000001 -1.8 0  0.7999999999999998 -1.8 0  1 -1.8 0  1.2 -1.8 0  1.4 -1.8 0  1.6 -1.8 0  1.8 -1.8 0  2 -1.8 0  -2 -1.6 0  -1.8 -1.6 0  -1.6 -1.6 0  -1.4 -1.6 0  -1.2 -1.6 0  -1 -1.6 0  -0.8 -1.6 0  -0.6000000000000001 -1.6 0  -0.3999999999999999 -1.6 0  -0.2 -1.6 0  0 -1.6 0  0.2000000000000002 -1.6 0  0.3999999999999999 -1.6 0  0.6000000000000001 -1.6 0  0.7999999999999998 -1.6 0  1 -1.6 0  1.2 -1.6 0  1.4 -1.6 0  1.6 -1.6 0  1.8 -1.6 0  2 -1.6 0  -2 -1.4 0  -1.8 -1.4 0  -1.6 -1.4 0  -1.4 -1.4 0  -1.2 -1.4 0  -1 -1.4 0  -0.8 -1.4 0  -0.6000000000000001 -1.4 0  -0.3999999999999999 -1.4 0  -0.2 -1.4 0  0 -1.4 0  0.2000000000000002 -1.4 0  0.3999999999999999 -1.4 0  0.6000000000000001 -1.4 0  0.7999999999999998 -1.4 0  1 -1.4 0  1.2 -1.4 0  1.4 -1.4 0  1.6 -1.4 0  1.8 -1.4 0  2 -1.4 0  -2 -1.2 0  -1.8 -1.2 0  -1.6 -1.2 0  -1.4 -1.2 0  -1.2 -1.2 0  -1 -1.2 0  -0.8 -1.2 0  -0.6000000000000001 -1.2 0  -0.3999999999999999 -1.2 0  -0.2 -1.2 0  0 -1.2 0  0.2000000000000002 -1.2 0  0.3999999999999999 -1.2 0  0.6000000000000001 -1.2 0  0.7999999999999998 -1.2 0  1 -1.2 0  1.2 -1.2 0  1.4 -1.2 0  1.6 -1.2 0  1.8 -1.2 0  2 -1.2 0  -2 -1 0  -1.8 -1 0  -1.6 -1 0  -1.4 -1 0  -1.2 -1 0  -1 -1 0  -0.8 -1 0  -0.6000000000000001 -1 0  -0.3999999999999999 -1 0  -0.2 -1 0  0 -1 0  0.2000000000000002 -1 0  0.3999999999999999 -1 0  0.6000000000000001 -1 0  0.7999999999999998 -1 0  1 -1 0  1.2 -1 0  1.4 -1 0  1.6 -1 0  1.8 -1 0  2 -1 0  -2 -0.8 0  -1.8 -0.8 0  -1.6 -0.8 0  -1.4 -0.8 0  -1.2 -0.8 0  -1 -0.8 0  -0.8 -0.8 0  -0.6000000000000001 -0.8 0  -0.3999999999999999 -0.8 0  -0.2 -0.8 0  0 -0.8 0  0.2000000000000002 -0.8 0  0.3999999999999999 -0.8 0  0.6000000000000001 -0.8 0  0.7999999999999998 -0.8 0  1 -0.8 0  1.2 -0.8 0  1.4 -0.8 0  1.6 -0.8 0  1.8 -0.8 0  2 -0.8 0  -2 -0.6000000000000001 0  -1.8 -0.6000000000000001 0  -1.6 -0.6000000000000001 0  -1.4 -0.6000000000000001 0  -1.2 -0.6000000000000001 0  -1 -0.6000000000000001 0  -0.8 -0.6000000000000001 0  -0.6000000000000001 -0.6000000000000001 0  -0.3999999999999999 -0.6000000000000001 0  -0.2 -0.6000000000000001 0  0 -0.6000000000000001 0  0.2000000000000002 -0.6000000000000001 0  0.3999999999999999 -0.6000000000000001 0  0.6000000000000001 -0.6000000000000001 0  0.7999999999999998 -0.6000000000000001 0  1 -0.6000000000000001 0  1.2 -0.6000000000000001 0  1.4 -0.6000000000000001 0  1.6 -0.6000000000000001 0  1.8 -0.6000000000000001 0  2 -0.6000000000000001 0  -2 -0.3999999999999999 0  -1.8 -0.3999999999999999 0  -1.6 -0.3999999999999999 0  -1.4 -0.3999999999999999 0  -1.2 -0.3999999999999999 0  -1 -0.3999999999999999 0  -0.8 -0.3999999999999999 0  -0.6000000000000001 -0.3999999999999999 0  -0.3999999999999999 -0.3999999999999999 0  -0.2 -0.3999999999999999 0  0 -0.3999999999999999 0  0.2000000000000002 -0.3999999999999999 0  0.3999999999999999 -0.3999999999999999 0  0.6000000000000001 -0.3999999999999999 0  0.7999999999999998 -0.3999999999999999 0  1 -0.3999999999999999 0  1.2 -0.3999999999999999 0  1.4 -0.3999999999999999 0  1.6 -0.3999999999999999 0  1.8 -0.3999999999999999 0  2 -0.3999999999999999 0  -2 -0.2 0  -1.8 -0.2 0  -1.6 -0.2 0  -1.4 -0.2 0  -1.2 -0.2 0  -1 -0.2 0  -0.8 -0.2 0  -0.6000000000000001 -0.2 0  -0.3999999999999999 -0.2 0  -0.2 -0.2 0  0 -0.2 0  0.2000000000000002 -0.2 0  0.3999999999999999 -0.2 0  0.6000000000000001 -0.2 0  0.7999999999999998 -0.2 0  1 -0.2 0  1.2 -0.2 0  1.4 -0.2 0  1.6 -0.2 0  1.8 -0.2 0  2 -0.2 0  -2 0 0  -1.8 0 0  -1.6 0 0  -1.4 0 0  -1.2 0 0  -1 0 0  -0.8 0 0  -0.6000000000000001 0 0  -0.3999999999999999 0 0  -0.2 0 0  0 0 0  0.2000000000000002 0 0  0.3999999999999999 0 0  0.6000000000000001 0 0  0.7999999999999998 0 0  1 0 0  1.2 0 0  1.4 0 0  1.6 0 0  1.8 0 0  2 0 0  -2 0.2000000000000002 0  -1.8 0.2000000000000002 0  -1.6 0.2000000000000002 0  -1.4 0.2000000000000002 0  -1.2 0.2000000000000002 0  -1 0.2000000000000002 0  -0.8 0.2000000000000002 0  -0.6000000000000001 0.2000000000000002 0  -0.3999999999999999 0.2000000000000002 0  -0.2 0.2000000000000002 0  0 0.2000000000000002 0  0.2000000000000002 0.2000000000000002 0  0.3999999999999999 0.2000000000000002 0  0.6000000000000001 0.2000000000000002 0  0.7999999999999998 0.2000000000000002 0  1 0.2000000000000002 0  1.2 0.2000000000000002 0  1.4 0.2000000000000002 0  1.6 0.2000000000000002 0  1.8 0.2000000000000002 0  2 0.2000000000000002 0  -2 0.3999999999999999 0  -1.8 0.3999999999999999 0  -1.6 0.3999999999999999 0  -1.4 0.3999999999999999 0  -1.2 0.3999999999999999 0  -1 0.3999999999999999 0  -0.8 0.3999999999999999 0  -0.6000000000000001 0.3999999999999999 0  -0.3999999999999999 0.3999999999999999 0  -0.2 0.3999999999999999 0  0 0.3999999999999999 0  0.2000000000000002 0.3999999999999999 0  0.3999999999999999 0.3999999999999999 0  0.6000000000000001 0.3999999999999999 0  0.7999999999999998 0.3999999999999999 0  1 0.3999999999999999 0  1.2 0.3999999999999999 0  1.4 0.3999999999999999 0  1.6 0.3999999999999999 0  1.8 0.3999999999999999 0  2 0.3999999999999999 0  -2 0.6000000000000001 0  -1.8 0.6000000000000001 0  -1.6 0.6000000000000001 0  -1.4 0.6000000000000001 0  -1.2 0.6000000000000001 0  -1 0.6000000000000001 0  -0.8 0.6000000000000001 0  -0.6000000000000001 0.6000000000000001 0  -0.3999999999999999 0.6000000000000001 0  -0.2 0.6000000000000001 0  0 0.6000000000000001 0  0.2000000000000002 0.6000000000000001 0  0.3999999999999999 0.6000000000000001 0  0.6000000000000001 0.6000000000000001 0  0.7999999999999998 0.6000000000000001 0  1 0.6000000000000001 0  1.2 0.6000000000000001 0  1.4 0.6000000000000001 0  1.6 0.6000000000000001 0  1.8 0.6000000000000001 0  2 0.6000000000000001 0  -2 0.7999999999999998 0  -1.8 0.7999999999999998 0  -1.6 0.7999999999999998 0  -1.4 0.7999999999999998 0  -1.2 0.7999999999999998 0  -1 0.7999999999999998 0  -0.8 0.7999999999999998 0  -0.6000000000000001 0.7999999999999998 0  -0.3999999999999999 0.7999999999999998 0  -0.2 0.7999999999999998 0  0 0.7999999999999998 0  0.2000000000000002 0.7999999999999998 0  0.3999999999999999 0.7999999999999998 0  0.6000000000000001 0.7999999999999998 0  0.7999999999999998 0.7999999999999998 0  1 0.7999999999999998 0  1.2 0.7999999999999998 0  1.4 0.7999999999999998 0  1.6 0.7999999999999998 0  1.8 0.7999999999999998 0  2 0.7999999999999998 0  -2 1 0  -1.8 1 0  -1.6 1 0  -1.4 1 0  -1.2 1 0  -1 1 0  -0.8 1 0  -0.6000000000000001 1 0  -0.3999999999999999 1 0  -0.2 1 0  0 1 0  0.2000000000000002 1 0  0.3999999999999999 1 0  0.6000000000000001 1 0  0.7999999999999998 1 0  1 1 0  1.2 1 0  1.4 1 0  1.6 1 0  1.8 1 0  2 1 0  -2 1.2 0  -1.8 1.2 0  -1.6 1.2 0  -1.4 1.2 0  -1.2 1.2 0  -1 1.2 0  -0.8 1.2 0  -0.6000000000000001 1.2 0  -0.3999999999999999 1.2 0  -0.2 1.2 0  0 1.2 0  0.2000000000000002 1.2 0  0.3999999999999999 1.2 0  0.6000000000000001 1.2 0  0.7999999999999998 1.2 0  1 1.2 0  1.2 1.2 0  1.4 1.2 0  1.6 1.2 0  1.8 1.2 0  2 1.2 0  -2 1.4 0  -1.8 1.4 0  -1.6 1.4 0  -1.4 1.4 0  -1.2 1.4 0  -1 1.4 0  -0.8 1.4 0  -0.6000000000000001 1.4 0  -0.3999999999999999 1.4 0  -0.2 1.4 0  0 1.4 0  0.2000000000000002 1.4 0  0.3999999999999999 1.4 0  0.6000000000000001 1.4 0  0.7999999999999998 1.4 0  1 1.4 0  1.2 1.4 0  1.4 1.4 0  1.6 1.4 0  1.8 1.4 0  2 1.4 0  -2 1.6 0  -1.8 1.6 0  -1.6 1.6 0  -1.4 1.6 0  -1.2 1.6 0  -1 1.6 0  -0.8 1.6 0  -0.6000000000000001 1.6 0  -0.3999999999999999 1.6 0  -0.2 1.6 0  0 1.6 0  0.2000000000000002 1.6 0  0.3999999999999999 1.6 0  0.6000000000000001 1.6 0  0.7999999999999998 1.6 0  1 1.6 0  1.2 1.6 0  1.4 1.6 0  1.6 1.6 0  1.8 1.6 0  2 1.6 0  -2 1.8 0  -1.8 1.8 0  -1.6 1.8 0  -1.4 1.8 0  -1.2 1.8 0  -1 1.8 0  -0.8 1.8 0  -0.6000000000000001 1.8 0  -0.3999999999999999 1.8 0  -0.2 1.8 0  0 1.8 0  0.2000000000000002 1.8 0  0.3999999999999999 1.8 0  0.6000000000000001 1.8 0  0.7999999999999998 1.8 0  1 1.8 0  1.2 1.8 0  1.4 1.8 0  1.6 1.8 0  1.8 1.8 0  2 1.8 0  -2 2 0  -1.8 2 0  -1.6 2 0  -1.4 2 0  -1.2 2 0  -1 2 0  -0.8 2 0  -0.6000000000000001 2 0  -0.3999999999999999 2 0  -0.2 2 0  0 2 0  0.2000000000000002 2 0  0.3999999999999999 2 0  0.6000000000000001 2 0  0.7999999999999998 2 0  1 2 0  1.2 2 0  1.4 2 0  1.6 2 0  1.8 2 0  2 2 0  </DataArray>
</Points>
<Cells>
[...]
<PointData  Scalars="f_18-2"> 
<DataArray  type="Float64"  Name="f_18-2"  format="ascii">1.8368952432507252e-01  1.8368952397954882e-01  1.8368952327356811e-01  1.8368952374467643e-01  1.8368952524988341e-01  1.8368952526429813e-01  1.8368952410371256e-01  1.8368952375744674e-01  1.8368952399837618e-01  1.8368952405393180e-01  1.8368952402389163e-01  1.8368952401319261e-01  1.8368952400418301e-01  1.8368952400509736e-01  1.8368952400717126e-01  1.8368952400692828e-01  1.8368952400671970e-01  1.8368952400672406e-01  1.8368952400676247e-01  1.8368952400675015e-01  1.8368952400675032e-01  1.8368952399926686e-01  1.8368952350739579e-01  1.8368952420962975e-01  1.8368952583130665e-01  1.8368952434546268e-01  1.8368952115491222e-01  1.8368952153792564e-01  1.8368952369050784e-01  1.8368952410010592e-01  1.8368952384431636e-01  1.8368952392368171e-01  1.8368952399586608e-01  1.8368952401135449e-01  1.8368952401263638e-01  1.8368952400587099e-01  1.8368952400601538e-01  1.8368952400691643e-01  1.8368952400681304e-01  1.8368952400673569e-01  1.8368952400676117e-01  1.8368952400676794e-01  1.8368952315356626e-01  1.8368952417811205e-01  1.8368952652107853e-01  1.8368952271598024e-01  1.8368951515737228e-01  1.8368952243878708e-01  1.8368953540055952e-01  1.8368953309291111e-01  1.8368952583551978e-01  1.8368952465990951e-01  1.8368952463651034e-01  1.8368952406186484e-01  1.8368952395537783e-01  1.8368952398221705e-01  1.8368952400889177e-01  1.8368952401215108e-01  1.8368952400535896e-01  1.8368952400652616e-01  1.8368952400693014e-01  1.8368952400674315e-01  1.8368952400670052e-01  1.8368952346527695e-01  1.8368952618886872e-01  1.8368952288019696e-01  1.8368951109637696e-01  1.8368953212331282e-01  1.8368956761470764e-01  1.8368953179268527e-01  1.8368948019571563e-01  1.8368949331960688e-01  1.8368951745405526e-01  1.8368952120952045e-01  1.8368952325456667e-01  1.8368952450962686e-01  1.8368952413747819e-01  1.8368952398849817e-01  1.8368952397795407e-01  1.8368952401312788e-01  1.8368952400931299e-01  1.8368952400513175e-01  1.8368952400690861e-01  1.8368952400687377e-01  1.8368952558498322e-01  1.8368952499189786e-01  1.8368951322866353e-01  1.8368953144626018e-01  1.8368959200682719e-01  1.8368948003018937e-01  1.8368930774183687e-01  1.8368947447132472e-01  1.8368967232431338e-01  1.8368960823072911e-01  1.8368953565737636e-01  1.8368952690503995e-01  1.8368952135292607e-01  1.8368952272902633e-01  1.8368952433616789e-01  1.8368952411927594e-01  1.8368952398401192e-01  1.8368952398615965e-01  1.8368952401846889e-01  1.8368952400470237e-01  1.8368952400723373e-01  1.8368952642177069e-01  1.8368952018434728e-01  1.8368951906456260e-01  1.8368957840241387e-01  1.8368948286550976e-01  1.8368914822379157e-01  1.8368972759989965e-01  1.8369060259815151e-01  1.8368986295552450e-01  1.8368913131328929e-01  1.8368939066202411e-01  1.8368954748762095e-01  1.8368953766300369e-01  1.8368953308858393e-01  1.8368952154282844e-01  1.8368952322664781e-01  1.8368952427216906e-01  1.8368952407344891e-01  1.8368952395206720e-01  1.8368952402066818e-01  1.8368952400149938e-01  1.8368952479949521e-01  1.8368951885481907e-01  1.8368953969437971e-01  1.8368954972138743e-01  1.8368924771533332e-01  1.8368971460503913e-01  1.8369173800092345e-01  1.8368884079273659e-01  1.8368417883797192e-01  1.8368736069150221e-01  1.8369004087336782e-01  1.8368932100364693e-01  1.8368933706724630e-01  1.8368949687191632e-01  1.8368953367096152e-01  1.8368953181772835e-01  1.8368952061853272e-01  1.8368952434444491e-01  1.8368952411710557e-01  1.8368952395714533e-01  1.8368952402683597e-01  1.8368952349088533e-01  1.8368952217389839e-01  1.8368954461965814e-01  1.8368946153702553e-01  1.8368937363212345e-01  1.8369093534994277e-01  1.8368891103648510e-01  1.8367546094121667e-01  1.8368912742604021e-01  1.8371505231367635e-01  1.8370118029658467e-01  1.8369096999088041e-01  1.8369132772207522e-01  1.8368960416903066e-01  1.8368941924184948e-01  1.8368948785874811e-01  1.8368954729686940e-01  1.8368951919897133e-01  1.8368952438674005e-01  1.8368952405446107e-01  1.8368952398314597e-01  1.8368952366355493e-01  1.8368952430665381e-01  1.8368953248719894e-01  1.8368944536811141e-01  1.8368974017550307e-01  1.8369046136234840e-01  1.8368236170649338e-01  1.8368865838884244e-01  1.8378621744395857e-01  1.8372992016556375e-01  1.8357997641989729e-01  1.8364406519686619e-01  1.8368192419454513e-01  1.8368780787408151e-01  1.8369128281791028e-01  1.8368936247081935e-01  1.8368945957626392e-01  1.8368954553425113e-01  1.8368952084705989e-01  1.8368952431091232e-01  1.8368952391769561e-01  1.8368952402934663e-01  1.8368952403837477e-01  1.8368952539829225e-01  1.8368949133200752e-01  1.8368978861899074e-01  1.8368897721654037e-01  1.8368369590762079e-01  1.8372447996266320e-01  1.8373377023543433e-01  1.8297042973222646e-01  1.8311838975685887e-01  1.8404113216875215e-01  1.8375004790581470e-01  1.8368160507363043e-01  1.8367667401199392e-01  1.8369249600985973e-01  1.8368933649231595e-01  1.8368950195257699e-01  1.8368952926963136e-01  1.8368952330509825e-01  1.8368952423111848e-01  1.8368952406284730e-01  1.8368952377714698e-01  1.8368952520218795e-01  1.8368951587109683e-01  1.8368961920678994e-01  1.8368882772233561e-01  1.8368970137189847e-01  1.8372350640936230e-01  1.8353862961284367e-01  1.8307983778097689e-01  1.8947487486466913e-01  1.9026130185550014e-01  1.8351797994857269e-01  1.8418705219134759e-01  1.8368973293143173e-01  1.8367708547472369e-01  1.8369125702820197e-01  1.8368938884049338e-01  1.8368954025688325e-01  1.8368952106522279e-01  1.8368952480813722e-01  1.8368952403107977e-01  1.8368952391453364e-01  1.8368952471221506e-01  1.8368952006078176e-01  1.8368954110156560e-01  1.8368937953500578e-01  1.8369048892559844e-01  1.8369758011151915e-01  1.8351515555771292e-01  1.8411498259767620e-01  1.9073369797107362e-01  1.3624573175353999e-01  1.2301247915044286e-01  1.8007401844303023e-01  1.8421933464305096e-01  1.8368048466137074e-01  1.8368835587341342e-01  1.8368956011777121e-01  1.8368950141593404e-01  1.8368953208182354e-01  1.8368952196602897e-01  1.8368952401164337e-01  1.8368952399645003e-01  1.8368952402780375e-01  1.8368952360828472e-01  1.8368952611974443e-01  1.8368954666901893e-01  1.8368924969320763e-01  1.8369129589678215e-01  1.8364060794638762e-01  1.8440881930724456e-01  1.8519181412044114e-01  9.9484113945498887e-02  1.1790682032962253e-02  1.1704596553144769e-01  1.8146979291308746e-01  1.8378190889073132e-01  1.8367972624312306e-01  1.8369154905615395e-01  1.8368931035413982e-01  1.8368954505490609e-01  1.8368951657401303e-01  1.8368952400238858e-01  1.8368952401708508e-01  1.8368952393580290e-01  1.8368952461728680e-01  1.8368952013704898e-01  1.8368954516335595e-01  1.8368932127599069e-01  1.8369145791781574e-01  1.8367975223091940e-01  1.8378605256273614e-01  1.8141668752530968e-01  1.1562002021996311e-01  1.1901652381195560e-02  1.0136914989501038e-01  1.8506063223234734e-01  1.8440603270162914e-01  1.8364228287424197e-01  1.8369117584485686e-01  1.8368922244774324e-01  1.8368955005744159e-01  1.8368952732540578e-01  1.8368952400546007e-01  1.8368952401216304e-01  1.8368952398111024e-01  1.8368952413296602e-01  1.8368952296864199e-01  1.8368953185993492e-01  1.8368949634592341e-01  1.8368957410835310e-01  1.8368841595993529e-01  1.8368004560441406e-01  1.8421892130370962e-01  1.8011629884369507e-01  1.2330971510039489e-01  1.3766462734452731e-01  1.9038896077618295e-01  1.8413380156333881e-01  1.8351857585950454e-01  1.8369637561768767e-01  1.8369064914463301e-01  1.8368936158177435e-01  1.8368955626705175e-01  1.8368952400732882e-01  1.8368952400507529e-01  1.8368952401448949e-01  1.8368952396302868e-01  1.8368952442649483e-01  1.8368952076366279e-01  1.8368954093415318e-01  1.8368939294023853e-01  1.8369120860766150e-01  1.8367730034579274e-01  1.8368920815567100e-01  1.8418733275079419e-01  1.8349890932176471e-01  1.9011187214689898e-01  1.8928028065521149e-01  1.8311962750800431e-01  1.8353942298520243e-01  1.8372150009477323e-01  1.8369022637020205e-01  1.8368871961639982e-01  1.8368972296788474e-01  1.8368952400688077e-01  1.8368952400619556e-01  1.8368952401106886e-01  1.8368952398054794e-01  1.8368952411592526e-01  1.8368952340872352e-01  1.8368952949106476e-01  1.8368949910026777e-01  1.8368935472226933e-01  1.8369242327997840e-01  1.8367685616155210e-01  1.8368142745882157e-01  1.8375042527374222e-01  1.8404368350146819e-01  1.8313663129414570e-01  1.8299216271493843e-01  1.8372953412847395e-01  1.8372356846864749e-01  1.8368427005901045e-01  1.8368878347569376e-01  1.8369008640602472e-01  1.8368952400668132e-01  1.8368952400703389e-01  1.8368952400480104e-01  1.8368952401678432e-01  1.8368952396268978e-01  1.8368952433357971e-01  1.8368952072619221e-01  1.8368954631496981e-01  1.8368945583924756e-01  1.8368937420808057e-01  1.8369126312340259e-01  1.8368780213806191e-01  1.8368188184645814e-01  1.8364468241006277e-01  1.8358118790646655e-01  1.8372792645608532e-01  1.8378325551324629e-01  1.8368924134360259e-01  1.8368254747145452e-01  1.8369031566769622e-01  1.8369000352829104e-01  1.8368952400674723e-01  1.8368952400680782e-01  1.8368952400644797e-01  1.8368952400900698e-01  1.8368952399283281e-01  1.8368952403750705e-01  1.8368952442491820e-01  1.8368951906390013e-01  1.8368954762502443e-01  1.8368948700304641e-01  1.8368942049541923e-01  1.8368960709900456e-01  1.8369134056424691e-01  1.8369089925517207e-01  1.8370069004337305e-01  1.8371452446238282e-01  1.8368944720691491e-01  1.8367590081940399e-01  1.8368881422781350e-01  1.8369091809998289e-01  1.8368925172703499e-01  1.8368952400677591e-01  1.8368952400671179e-01  1.8368952400689176e-01  1.8368952400606159e-01  1.8368952401274799e-01  1.8368952396939592e-01  1.8368952410940001e-01  1.8368952428771357e-01  1.8368952070265651e-01  1.8368953247135253e-01  1.8368953241449451e-01  1.8368949298001797e-01  1.8368933258303463e-01  1.8368933690751790e-01  1.8369017040896146e-01  1.8368758972049645e-01  1.8368424074083775e-01  1.8368867202995559e-01  1.8369163355903292e-01  1.8368978125570762e-01  1.8368899897070820e-01  1.8368952400675112e-01  1.8368952400675614e-01  1.8368952400672525e-01  1.8368952400727706e-01  1.8368952400151323e-01  1.8368952403820535e-01  1.8368952389738033e-01  1.8368952413619799e-01  1.8368952454181639e-01  1.8368952245324557e-01  1.8368951905023645e-01  1.8368954212142147e-01  1.8368955156580477e-01  1.8368957217010917e-01  1.8368925128784272e-01  1.8368870131206205e-01  1.8369013700707224e-01  1.8369165271787674e-01  1.8368995365665805e-01  1.8368880587338027e-01  1.8368940995776398e-01  </DataArray> 
</PointData> 
</Piece>
</UnstructuredGrid>
</VTKFile>