<?xml version="1.0"?>
<VTKFile type="UnstructuredGrid"  version="0.1"  >
<UnstructuredGrid>
<Piece  NumberOfPoints="441" NumberOfCells="800">
<Points>
<DataArray  type="Float64"  NumberOfComponents="3"  format="ascii">-0.5 -0.5 0  -0.45 -0.5 0  -0.4 -0.5 0  -0.35 -0.5 0  -0.3 -0.5 0  -0.25 -0.5 0  -0.2 -0.5 0  -0.15 -0.5 0  -0.09999999999999998 -0.5 0  -0.04999999999999999 -0.5 0  0 -0.5 0  0.05000000000000004 -0.5 0  0.09999999999999998 -0.5 0  0.15 -0.5 0  0.2 -0.5 0  0.25 -0.5 0  0.3 -0.5 0  0.35 -0.5 0  0.4 -0.5 0  0.45 -0.5 0  0.5 -0.5 0  -0.5 -0.45 0  -0.45 -0.45 0  -0.4 -0.45 0  -0.35 -0.45 0  -0.3 -0.45 0  -0.25 -0.45 0  -0.2 -0.45 0  -0.15 -0.45 0  -0.09999999999999998 -0.45 0  -0.04999999999999999 -0.45 0  0 -0.45 0  0.05000000000000004 -0.45 0  0.09999999999999998 -0.45 0  0.15 -0.45 0  0.2 -0.45 0  0.25 -0.45 0  0.3 -0.45 0  0.35 -0.45 0  0.4 -0.45 0  0.45 -0.45 0  0.5 -0.45 0  -0.5 -0.4 0  -0.45 -0.4 0  -0.4 -0.4 0  -0.35 -0.4 0  -0.3 -0.4 0  -0.25 -0.4 0  -0.2 -0.4 0  -0.15 -0.4 0  -0.09999999999999998 -0.4 0  -0.04999999999999999 -0.4 0  0 -0.4 0  0.05000000000000004 -0.4 0  0.09999999999999998 -0.4 0  0.15 -0.4 0  0.2 -0.4 0  0.25 -0.4 0  0.3 -0.4 0  0.35 -0.4 0  0.4 -0.4 0  0.45 -0.4 0  0.5 -0.4 0  -0.5 -0.35 0  -0.45 -0.35 0  -0.4 -0.35 0  -0.35 -0.35 0  -0.3 -0.35 0  -0.25 -0.35 0  -0.2 -0.35 0  -0.15 -0.35 0  -0.09999999999999998 -0.35 0  -0.04999999999999999 -0.35 0  0 -0.35 0  0.05000000000000004 -0.35 0  0.09999999999999998 -0.35 0  0.15 -0.35 0  0.2 -0.35 0  0.25 -0.35 0  0.3 -0.35 0  0.35 -0.35 0  0.4 -0.35 0  0.45 -0.35 0  0.5 -0.35 0  -0.5 -0.3 0  -0.45 -0.3 0  -0.4 -0.3 0  -0.35 -0.3 0  -0.3 -0.3 0  -0.25 -0.3 0  -0.2 -0.3 0  -0.15 -0.3 0  -0.09999999999999998 -0.3 0  -0.04999999999999999 -0.3 0  0 -0.3 0  0.05000000000000004 -0.3 0  0.09999999999999998 -0.3 0  0.15 -0.3 0  0.2 -0.3 0  0.25 -0.3 0  0.3 -0.3 0  0.35 -0.3 0  0.4 -0.3 0  0.45 -0.3 0  0.5 -0.3 0  -0.5 -0.25 0  -0.45 -0.25 0  -0.4 -0.25 0  -0.35 -0.25 0  -0.3 -0.25 0  -0.25 -0.25 0  -0.2 -0.25 0  -0.15 -0.25 0  -0.09999999999999998 -0.25 0  -0.04999999999999999 -0.25 0  0 -0.25 0  0.05000000000000004 -0.25 0  0.09999999999999998 -0.25 0  0.15 -0.25 0  0.2 -0.25 0  0.25 -0.25 0  0.3 -0.25 0  0.35 -0.25 0  0.4 -0.25 0  0.45 -0.25 0  0.5 -0.25 0  -0.5 -0.2 0  -0.45 -0.2 0  -0.4 -0.2 0  -0.35 -0.2 0  -0.3 -0.2 0  -0.25 -0.2 0  -0.2 -0.2 0  -0.15 -0.2 0  -0.09999999999999998 -0.2 0  -0.04999999999999999 -0.2 0  0 -0.2 0  0.05000000000000004 -0.2 0  0.09999999999999998 -0.2 0  0.15 -0.2 0  0.2 -0.2 0  0.25 -0.2 0  0.3 -0.2 0  0.35 -0.2 0  0.4 -0.2 0  0.45 -0.2 0  0.5 -0.2 0  -0.5 -0.15 0  -0.45 -0.15 0  -0.4 -0.15 0  -0.35 -0.15 0  -0.3 -0.15 0  -0.25 -0.15 0  -0.2 -0.15 0  -0.15 -0.15 0  -0.09999999999999998 -0.15 0  -0.04999999999999999 -0.15 0  0 -0.15 0  0.05000000000000004 -0.15 0  0.09999999999999998 -0.15 0  0.15 -0.15 0  0.2 -0.15 0  0.25 -0.15 0  0.3 -0.15 0  0.35 -0.15 0  0.4 -0.15 0  0.45 -0.15 0  0.5 -0.15 0  -0.5 -0.09999999999999998 0  -0.45 -0.09999999999999998 0  -0.4 -0.09999999999999998 0  -0.35 -0.09999999999999998 0  -0.3 -0.09999999999999998 0  -0.25 -0.09999999999999998 0  -0.2 -0.09999999999999998 0  -0.15 -0.09999999999999998 0  -0.09999999999999998 -0.09999999999999998 0  -0.04999999999999999 -0.09999999999999998 0  0 -0.09999999999999998 0  0.05000000000000004 -0.09999999999999998 0  0.09999999999999998 -0.09999999999999998 0  0.15 -0.09999999999999998 0  0.2 -0.09999999999999998 0  0.25 -0.09999999999999998 0  0.3 -0.09999999999999998 0  0.35 -0.09999999999999998 0  0.4 -0.09999999999999998 0  0.45 -0.09999999999999998 0  0.5 -0.09999999999999998 0  -0.5 -0.04999999999999999 0  -0.45 -0.04999999999999999 0  -0.4 -0.04999999999999999 0  -0.35 -0.04999999999999999 0  -0.3 -0.04999999999999999 0  -0.25 -0.04999999999999999 0  -0.2 -0.04999999999999999 0  -0.15 -0.04999999999999999 0  -0.09999999999999998 -0.04999999999999999 0  -0.04999999999999999 -0.04999999999999999 0  0 -0.04999999999999999 0  0.05000000000000004 -0.04999999999999999 0  0.09999999999999998 -0.04999999999999999 0  0.15 -0.04999999999999999 0  0.2 -0.04999999999999999 0  0.25 -0.04999999999999999 0  0.3 -0.04999999999999999 0  0.35 -0.04999999999999999 0  0.4 -0.04999999999999999 0  0.45 -0.04999999999999999 0  0.5 -0.04999999999999999 0  -0.5 0 0  -0.45 0 0  -0.4 0 0  -0.35 0 0  -0.3 0 0  -0.25 0 0  -0.2 0 0  -0.15 0 0  -0.09999999999999998 0 0  -0.04999999999999999 0 0  0 0 0  0.05000000000000004 0 0  0.09999999999999998 0 0  0.15 0 0  0.2 0 0  0.25 0 0  0.3 0 0  0.35 0 0  0.4 0 0  0.45 0 0  0.5 0 0  -0.5 0.05000000000000004 0  -0.45 0.05000000000000004 0  -0.4 0.05000000000000004 0  -0.35 0.05000000000000004 0  -0.3 0.05000000000000004 0  -0.25 0.05000000000000004 0  -0.2 0.05000000000000004 0  -0.15 0.05000000000000004 0  -0.09999999999999998 0.05000000000000004 0  -0.04999999999999999 0.05000000000000004 0  0 0.05000000000000004 0  0.05000000000000004 0.05000000000000004 0  0.09999999999999998 0.05000000000000004 0  0.15 0.05000000000000004 0  0.2 0.05000000000000004 0  0.25 0.05000000000000004 0  0.3 0.05000000000000004 0  0.35 0.05000000000000004 0  0.4 0.05000000000000004 0  0.45 0.05000000000000004 0  0.5 0.05000000000000004 0  -0.5 0.09999999999999998 0  -0.45 0.09999999999999998 0  -0.4 0.09999999999999998 0  -0.35 0.09999999999999998 0  -0.3 0.09999999999999998 0  -0.25 0.09999999999999998 0  -0.2 0.09999999999999998 0  -0.15 0.09999999999999998 0  -0.09999999999999998 0.09999999999999998 0  -0.04999999999999999 0.09999999999999998 0  0 0.09999999999999998 0  0.05000000000000004 0.09999999999999998 0  0.09999999999999998 0.09999999999999998 0  0.15 0.09999999999999998 0  0.2 0.09999999999999998 0  0.25 0.09999999999999998 0  0.3 0.09999999999999998 0  0.35 0.09999999999999998 0  0.4 0.09999999999999998 0  0.45 0.09999999999999998 0  0.5 0.09999999999999998 0  -0.5 0.15 0  -0.45 0.15 0  -0.4 0.15 0  -0.35 0.15 0  -0.3 0.15 0  -0.25 0.15 0  -0.2 0.15 0  -0.15 0.15 0  -0.09999999999999998 0.15 0  -0.04999999999999999 0.15 0  0 0.15 0  0.05000000000000004 0.15 0  0.09999999999999998 0.15 0  0.15 0.15 0  0.2 0.15 0  0.25 0.15 0  0.3 0.15 0  0.35 0.15 0  0.4 0.15 0  0.45 0.15 0  0.5 0.15 0  -0.5 0.2 0  -0.45 0.2 0  -0.4 0.2 0  -0.35 0.2 0  -0.3 0.2 0  -0.25 0.2 0  -0.2 0.2 0  -0.15 0.2 0  -0.09999999999999998 0.2 0  -0.04999999999999999 0.2 0  0 0.2 0  0.05000000000000004 0.2 0  0.09999999999999998 0.2 0  0.15 0.2 0  0.2 0.2 0  0.25 0.2 0  0.3 0.2 0  0.35 0.2 0  0.4 0.2 0  0.45 0.2 0  0.5 0.2 0  -0.5 0.25 0  -0.45 0.25 0  -0.4 0.25 0  -0.35 0.25 0  -0.3 0.25 0  -0.25 0.25 0  -0.2 0.25 0  -0.15 0.25 0  -0.09999999999999998 0.25 0  -0.04999999999999999 0.25 0  0 0.25 0  0.05000000000000004 0.25 0  0.09999999999999998 0.25 0  0.15 0.25 0  0.2 0.25 0  0.25 0.25 0  0.3 0.25 0  0.35 0.25 0  0.4 0.25 0  0.45 0.25 0  0.5 0.25 0  -0.5 0.3 0  -0.45 0.3 0  -0.4 0.3 0  -0.35 0.3 0  -0.3 0.3 0  -0.25 0.3 0  -0.2 0.3 0  -0.15 0.3 0  -0.09999999999999998 0.3 0  -0.04999999999999999 0.3 0  0 0.3 0  0.05000000000000004 0.3 0  0.09999999999999998 0.3 0  0.15 0.3 0  0.2 0.3 0  0.25 0.3 0  0.3 0.3 0  0.35 0.3 0  0.4 0.3 0  0.45 0.3 0  0.5 0.3 0  -0.5 0.35 0  -0.45 0.35 0  -0.4 0.35 0  -0.35 0.35 0  -0.3 0.35 0  -0.25 0.35 0  -0.2 0.35 0  -0.15 0.35 0  -0.09999999999999998 0.35 0  -0.04999999999999999 0.35 0  0 0.35 0  0.05000000000000004 0.35 0  0.09999999999999998 0.35 0  0.15 0.35 0  0.2 0.35 0  0.25 0.35 0  0.3 0.35 0  0.35 0.35 0  0.4 0.35 0  0.45 0.35 0  0.5 0.35 0  -0.5 0.4 0  -0.45 0.4 0  -0.4 0.4 0  -0.35 0.4 0  -0.3 0.4 0  -0.25 0.4 0  -0.2 0.4 0  -0.15 0.4 0  -0.09999999999999998 0.4 0  -0.04999999999999999 0.4 0  0 0.4 0  0.05000000000000004 0.4 0  0.09999999999999998 0.4 0  0.15 0.4 0  0.2 0.4 0  0.25 0.4 0  0.3 0.4 0  0.35 0.4 0  0.4 0.4 0  0.45 0.4 0  0.5 0.4 0  -0.5 0.45 0  -0.45 0.45 0  -0.4 0.45 0  -0.35 0.45 0  -0.3 0.45 0  -0.25 0.45 0  -0.2 0.45 0  -0.15 0.45 0  -0.09999999999999998 0.45 0  -0.04999999999999999 0.45 0  0 0.45 0  0.05000000000000004 0.45 0  0.09999999999999998 0.45 0  0.15 0.45 0  0.2 0.45 0  0.25 0.45 0  0.3 0.45 0  0.35 0.45 0  0.4 0.45 0  0.45 0.45 0  0.5 0.45 0  -0.5 0.5 0  -0.45 0.5 0  -0.4 0.5 0  -0.35 0.5 0  -0.3 0.5 0  -0.25 0.5 0  -0.2 0.5 0  -0.15 0.5 0  -0.09999999999999998 0.5 0  -0.04999999999999999 0.5 0  0 0.5 0  0.05000000000000004 0.5 0  0.09999999999999998 0.5 0  0.15 0.5 0  0.2 0.5 0  0.25 0.5 0  0.3 0.5 0  0.35 0.5 0  0.4 0.5 0  0.45 0.5 0  0.5 0.5 0  </DataArray>
</Points>
<Cells>
[...]
<PointData  Scalars="f_18-2"> 
<DataArray  type="Float64"  Name="f_18-2"  format="ascii">1.4038829027170899e-01  1.4038829027171620e-01  1.4038829027180444e-01  1.4038829027193050e-01  1.4038829027183611e-01  1.4038829027149424e-01  1.4038829027137475e-01  1.4038829027177396e-01  1.4038829027218430e-01  1.4038829027206365e-01  1.4038829027173091e-01  1.4038829027165869e-01  1.4038829027168848e-01  1.4038829027165639e-01  1.4038829027171668e-01  1.4038829027179403e-01  1.4038829027176442e-01  1.4038829027176108e-01  1.4038829027175947e-01  1.4038829027175923e-01  1.4038829027175909e-01  1.4038829027170635e-01  1.4038829027179051e-01  1.4038829027189531e-01  1.4038829027180594e-01  1.4038829027144092e-01  1.4038829027129970e-01  1.4038829027190830e-01  1.4038829027266203e-01  1.4038829027238900e-01  1.4038829027135533e-01  1.4038829027099209e-01  1.4038829027145555e-01  1.4038829027172314e-01  1.4038829027173441e-01  1.4038829027192914e-01  1.4038829027194480e-01  1.4038829027173075e-01  1.4038829027175598e-01  1.4038829027175723e-01  1.4038829027175892e-01  1.4038829027175906e-01  1.4038829027185018e-01  1.4038829027193017e-01  1.4038829027179989e-01  1.4038829027116154e-01  1.4038829027090191e-01  1.4038829027235250e-01  1.4038829027440242e-01  1.4038829027348121e-01  1.4038829026932204e-01  1.4038829026730604e-01  1.4038829027035157e-01  1.4038829027369581e-01  1.4038829027350960e-01  1.4038829027267602e-01  1.4038829027285288e-01  1.4038829027188057e-01  1.4038829027091948e-01  1.4038829027173136e-01  1.4038829027174185e-01  1.4038829027175601e-01  1.4038829027175817e-01  1.4038829027212488e-01  1.4038829027180516e-01  1.4038829027095984e-01  1.4038829027056388e-01  1.4038829027305319e-01  1.4038829027712188e-01  1.4038829027492578e-01  1.4038829026334892e-01  1.4038829025633692e-01  1.4038829026860850e-01  1.4038829028745087e-01  1.4038829028792493e-01  1.4038829027427910e-01  1.4038829026881677e-01  1.4038829026973021e-01  1.4038829026577360e-01  1.4038829026667032e-01  1.4038829027404356e-01  1.4038829027201447e-01  1.4038829027182609e-01  1.4038829027178043e-01  1.4038829027184091e-01  1.4038829027101121e-01  1.4038829027042585e-01  1.4038829027363647e-01  1.4038829027984082e-01  1.4038829027608410e-01  1.4038829025244659e-01  1.4038829023529226e-01  1.4038829027002755e-01  1.4038829033746619e-01  1.4038829034510955e-01  1.4038829026704921e-01  1.4038829020630689e-01  1.4038829022641500e-01  1.4038829025463295e-01  1.4038829025235722e-01  1.4038829027757879e-01  1.4038829030461802e-01  1.4038829027000965e-01  1.4038829027134617e-01  1.4038829027182206e-01  1.4038829027053260e-01  1.4038829027058475e-01  1.4038829027366437e-01  1.4038829028102806e-01  1.4038829027659094e-01  1.4038829024047891e-01  1.4038829020907573e-01  1.4038829028065566e-01  1.4038829044973564e-01  1.4038829048172996e-01  1.4038829020101240e-01  1.4038828988720739e-01  1.4038828996540731e-01  1.4038829030131730e-01  1.4038829042334500e-01  1.4038829037066339e-01  1.4038829044668952e-01  1.4038829042222986e-01  1.4038829015902385e-01  1.4038829025684002e-01  1.4038829027113991e-01  1.4038829026999342e-01  1.4038829027297331e-01  1.4038829027995986e-01  1.4038829027661937e-01  1.4038829023502061e-01  1.4038829019027987e-01  1.4038829029802269e-01  1.4038829060792091e-01  1.4038829069025419e-01  1.4038828998164446e-01  1.4038828895742886e-01  1.4038828913280499e-01  1.4038829081672494e-01  1.4038829203534944e-01  1.4038829145550946e-01  1.4038829057856453e-01  1.4038829057221408e-01  1.4038828999455763e-01  1.4038828900394132e-01  1.4038829036810349e-01  1.4038829033291852e-01  1.4038829027303407e-01  1.4038829027709623e-01  1.4038829027617808e-01  1.4038829024012356e-01  1.4038829018979992e-01  1.4038829030702446e-01  1.4038829073070036e-01  1.4038829088874505e-01  1.4038828959487112e-01  1.4038828726893354e-01  1.4038828752781757e-01  1.4038829293866756e-01  1.4038829866414856e-01  1.4038829671566694e-01  1.4038828874382925e-01  1.4038828486090096e-01  1.4038828636395800e-01  1.4038828510675777e-01  1.4038828463270003e-01  1.4038829486332641e-01  1.4038829130883021e-01  1.4038829027748892e-01  1.4038829027511812e-01  1.4038829025175983e-01  1.4038829020756982e-01  1.4038829029770991e-01  1.4038829073271411e-01  1.4038829097314801e-01  1.4038828925720162e-01  1.4038828542406612e-01  1.4038828559639713e-01  1.4038829776454267e-01  1.4038831471204363e-01  1.4038831076643460e-01  1.4038827606381643e-01  1.4038824469441474e-01  1.4038825284768286e-01  1.4038827927452235e-01  1.4038828499023745e-01  1.4038829658911861e-01  1.4038834252888241e-01  1.4038829144639997e-01  1.4038829027557898e-01  1.4038829026304364e-01  1.4038829023301552e-01  1.4038829027994407e-01  1.4038829061429586e-01  1.4038829089930613e-01  1.4038828925839558e-01  1.4038828458862901e-01  1.4038828426797476e-01  1.4038830384204531e-01  1.4038833847224244e-01  1.4038833343959276e-01  1.4038823473253059e-01  1.4038810593121415e-01  1.4038811306654561e-01  1.4038829506270156e-01  1.4038845576205353e-01  1.4038845926922230e-01  1.4038847681911693e-01  1.4038857600148338e-01  1.4038814645878409e-01  1.4038829026581370e-01  1.4038829025462105e-01  1.4038829026922228e-01  1.4038829045940818e-01  1.4038829071131753e-01  1.4038828959728269e-01  1.4038828537367071e-01  1.4038828420610600e-01  1.4038830674222080e-01  1.4038835743706982e-01  1.4038835544194966e-01  1.4038816013583374e-01  1.4038782215531759e-01  1.4038778194616078e-01  1.4038845355274709e-01  1.4038944595417613e-01  1.4038975547631194e-01  1.4038917776071508e-01  1.4038872295082783e-01  1.4038852466011523e-01  1.4038600257778303e-01  1.4038829026026733e-01  1.4038829026794136e-01  1.4038829034679534e-01  1.4038829050609924e-01  1.4038828998207117e-01  1.4038828716231150e-01  1.4038828540269099e-01  1.4038830381339246e-01  1.4038835772784122e-01  1.4038836492828027e-01  1.4038809355399559e-01  1.4038748630841805e-01  1.4038731068047644e-01  1.4038896352682528e-01  1.4039243111417410e-01  1.4039459236529464e-01  1.4039189436055324e-01  1.4038562313178798e-01  1.4038111046111834e-01  1.4037852984016133e-01  1.4036755205915794e-01  1.4038829026857713e-01  1.4038829029280969e-01  1.4038829036285427e-01  1.4038829019758198e-01  1.4038828882605864e-01  1.4038828724711688e-01  1.4038829776571268e-01  1.4038833947412097e-01  1.4038835712986059e-01  1.4038809399883895e-01  1.4038732851267677e-01  1.4038694680510547e-01  1.4038973786076922e-01  1.4039762001309611e-01  1.4040499551478094e-01  1.4039761533031381e-01  1.4036684538210806e-01  1.4032621371378357e-01  1.4030062737112656e-01  1.4028989324348501e-01  1.4025414570083267e-01  1.4038829028040331e-01  1.4038829029586911e-01  1.4038829026207722e-01  1.4038828978523665e-01  1.4038828888793217e-01  1.4038829302113642e-01  1.4038831634116120e-01  1.4038833675471271e-01  1.4038816101350438e-01  1.4038747890787118e-01  1.4038693551554229e-01  1.4039013644154127e-01  1.4040219328007272e-01  1.4041772707069705e-01  1.4040402872432473e-01  1.4031081953802410e-01  1.4012756669834966e-01  1.3992999213313789e-01  1.3982148455664981e-01  1.3980002042920350e-01  1.3971821945137800e-01  1.4038829027989352e-01  1.4038829027095356e-01  1.4038829015580351e-01  1.4038828983460519e-01  1.4038829094790184e-01  1.4038830026657234e-01  1.4038831441758876e-01  1.4038823485260296e-01  1.4038780507930507e-01  1.4038727324362493e-01  1.4038971460161354e-01  1.4040222369979394e-01  1.4042382074633808e-01  1.4040761482486919e-01  1.4022450470198133e-01  1.3972168197294246e-01  1.3892016611809485e-01  1.3814025442621811e-01  1.3776430593522515e-01  1.3778828407445529e-01  1.3770220587200496e-01  1.4038829027108257e-01  1.4038829025331301e-01  1.4038829018553034e-01  1.4038829040371428e-01  1.4038829301772471e-01  1.4038829909800982e-01  1.4038827478399460e-01  1.4038808349654924e-01  1.4038772525866167e-01  1.4038892520457202e-01  1.4039774167294203e-01  1.4041806081286148e-01  1.4040788479552394e-01  1.4017834026407042e-01  1.3931919982101124e-01  1.3740979823295399e-01  1.3462605001449032e-01  1.3206770970849843e-01  1.3096474287208681e-01  1.3133446235224083e-01  1.3159586679117982e-01  1.4038829026859415e-01  1.4038829026350705e-01  1.4038829029935337e-01  1.4038829079076667e-01  1.4038829232888506e-01  1.4038828696092392e-01  1.4038822672125068e-01  1.4038806366975279e-01  1.4038842826126902e-01  1.4039266667250280e-01  1.4040577328841597e-01  1.4040502750418163e-01  1.4022450110321732e-01  1.3931786204966007e-01  1.3660398525035317e-01  1.3106640643568743e-01  1.2338049080540139e-01  1.1659137421235638e-01  1.1386865122200056e-01  1.1533746563560707e-01  1.1696846933808450e-01  1.4038829027172173e-01  1.4038829027611202e-01  1.4038829032763048e-01  1.4038829050683607e-01  1.4038828945046830e-01  1.4038827615825367e-01  1.4038822867025630e-01  1.4038829993141538e-01  1.4038972033503519e-01  1.4039558703798899e-01  1.4039918809689705e-01  1.4031055736571507e-01  1.3971557066866264e-01  1.3739953911950187e-01  1.3106337547951932e-01  1.1876841678535603e-01  1.0253725971559340e-01  8.8926158468236885e-02  8.3656155287381434e-02  8.6825967328881634e-02  9.0940025437764346e-02  1.4038829027173075e-01  1.4038829027233085e-01  1.4038829026939476e-01  1.4038829009522566e-01  1.4038828829004346e-01  1.4038828109506257e-01  1.4038829772852954e-01  1.4038865045970389e-01  1.4039048595034750e-01  1.4039310889924897e-01  1.4036552200153798e-01  1.4011450528643118e-01  1.3888569912342377e-01  1.3458502336678393e-01  1.2338338136717647e-01  1.0259249359702960e-01  7.6967786936857602e-02  5.7264086411666200e-02  4.9944687585168450e-02  5.3985082771757613e-02  5.9843682620896115e-02  1.4038829027174782e-01  1.4038829027183125e-01  1.4038829027009980e-01  1.4038829023672644e-01  1.4038829029993372e-01  1.4038829605989456e-01  1.4038836181874265e-01  1.4038873295393453e-01  1.4038944860238378e-01  1.4038303327066934e-01  1.4030931296385571e-01  1.3987429369793511e-01  1.3802908785675935e-01  1.3196363697823654e-01  1.1666687076917198e-01  8.9225175684588903e-02  5.7512981373958168e-02  3.5402075728529186e-02  2.7735586049264824e-02  3.1365504301338706e-02  3.7099086837229713e-02  1.4038829027175889e-01  1.4038829027180735e-01  1.4038829027190028e-01  1.4038829027260122e-01  1.4038829040739276e-01  1.4038829247323195e-01  1.4038830104766206e-01  1.4038819235706113e-01  1.4038609475406513e-01  1.4036710842040617e-01  1.4024861836484312e-01  1.3968321851706750e-01  1.3752419764215182e-01  1.3082726246878248e-01  1.1437691614626951e-01  8.4939001610605913e-02  5.1025131831515302e-02  2.8168958732198126e-02  2.0651017912992016e-02  2.3708812881849575e-02  2.8970973222197202e-02  </DataArray> 
</PointData> 
</Piece>
</UnstructuredGrid>
</VTKFile>