<?xml version="1.0"?>
<VTKFile type="UnstructuredGrid"  version="0.1"  >
<UnstructuredGrid>
<Piece  NumberOfPoints="961" NumberOfCells="1800">
<Points>
<DataArray  type="Float64"  NumberOfComponents="3"  format="ascii">0 0 0  0.03333333333333333 0 0  0.06666666666666667 0 0  0.1 0 0  0.1333333333333333 0 0  0.1666666666666667 0 0  0.2 0 0  0.2333333333333333 0 0  0.2666666666666667 0 0  0.3 0 0  0.3333333333333333 0 0  0.3666666666666666 0 0  0.4 0 0  0.4333333333333333 0 0  0.4666666666666667 0 0  0.5 0 0  0.5333333333333333 0 0  0.5666666666666667 0 0  0.6 0 0  0.6333333333333333 0 0  0.6666666666666666 0 0  0.7 0 0  0.7333333333333333 0 0  0.7666666666666667 0 0  0.8 0 0  0.8333333333333334 0 0  0.8666666666666667 0 0  0.9 0 0  0.9333333333333333 0 0  0.9666666666666667 0 0  1 0 0  0 0.03333333333333333 0  0.03333333333333333 0.03333333333333333 0  0.06666666666666667 0.03333333333333333 0  0.1 0.03333333333333333 0  0.1333333333333333 0.03333333333333333 0  0.1666666666666667 0.03333333333333333 0  0.2 0.03333333333333333 0  0.2333333333333333 0.03333333333333333 0  0.2666666666666667 0.03333333333333333 0  0.3 0.03333333333333333 0  0.3333333333333333 0.03333333333333333 0  0.3666666666666666 0.03333333333333333 0  0.4 0.03333333333333333 0  0.4333333333333333 0.03333333333333333 0  0.4666666666666667 0.03333333333333333 0  0.5 0.03333333333333333 0  0.5333333333333333 0.03333333333333333 0  0.5666666666666667 0.03333333333333333 0  0.6 0.03333333333333333 0  0.6333333333333333 0.03333333333333333 0  0.6666666666666666 0.03333333333333333 0  0.7 0.03333333333333333 0  0.7333333333333333 0.03333333333333333 0  0.7666666666666667 0.03333333333333333 0  0.8 0.03333333333333333 0  0.8333333333333334 0.03333333333333333 0  0.8666666666666667 0.03333333333333333 0  0.9 0.03333333333333333 0  0.9333333333333333 0.03333333333333333 0  0.9666666666666667 0.03333333333333333 0  1 0.03333333333333333 0  0 0.06666666666666667 0  0.03333333333333333 0.06666666666666667 0  0.06666666666666667 0.06666666666666667 0  0.1 0.06666666666666667 0  0.1333333333333333 0.06666666666666667 0  0.1666666666666667 0.06666666666666667 0  0.2 0.06666666666666667 0  0.2333333333333333 0.06666666666666667 0  0.2666666666666667 0.06666666666666667 0  0.3 0.06666666666666667 0  0.3333333333333333 0.06666666666666667 0  0.3666666666666666 0.06666666666666667 0  0.4 0.06666666666666667 0  0.4333333333333333 0.06666666666666667 0  0.4666666666666667 0.06666666666666667 0  0.5 0.06666666666666667 0  0.5333333333333333 0.06666666666666667 0  0.5666666666666667 0.06666666666666667 0  0.6 0.06666666666666667 0  0.6333333333333333 0.06666666666666667 0  0.6666666666666666 0.06666666666666667 0  0.7 0.06666666666666667 0  0.7333333333333333 0.06666666666666667 0  0.7666666666666667 0.06666666666666667 0  0.8 0.06666666666666667 0  0.8333333333333334 0.06666666666666667 0  0.8666666666666667 0.06666666666666667 0  0.9 0.06666666666666667 0  0.9333333333333333 0.06666666666666667 0  0.9666666666666667 0.06666666666666667 0  1 0.06666666666666667 0  0 0.1 0  0.03333333333333333 0.1 0  0.06666666666666667 0.1 0  0.1 0.1 0  0.1333333333333333 0.1 0  0.1666666666666667 0.1 0  0.2 0.1 0  0.2333333333333333 0.1 0  0.2666666666666667 0.1 0  0.3 0.1 0  0.3333333333333333 0.1 0  0.3666666666666666 0.1 0  0.4 0.1 0  0.4333333333333333 0.1 0  0.4666666666666667 0.1 0  0.5 0.1 0  0.5333333333333333 0.1 0  0.5666666666666667 0.1 0  0.6 0.1 0  0.6333333333333333 0.1 0  0.6666666666666666 0.1 0  0.7 0.1 0  0.7333333333333333 0.1 0  0.7666666666666667 0.1 0  0.8 0.1 0  0.8333333333333334 0.1 0  0.8666666666666667 0.1 0  0.9 0.1 0  0.9333333333333333 0.1 0  0.9666666666666667 0.1 0  1 0.1 0  0 0.1333333333333333 0  0.03333333333333333 0.1333333333333333 0  0.06666666666666667 0.1333333333333333 0  0.1 0.1333333333333333 0  0.1333333333333333 0.1333333333333333 0  0.1666666666666667 0.1333333333333333 0  0.2 0.1333333333333333 0  0.2333333333333333 0.1333333333333333 0  0.2666666666666667 0.1333333333333333 0  0.3 0.1333333333333333 0  0.3333333333333333 0.1333333333333333 0  0.3666666666666666 0.1333333333333333 0  0.4 0.1333333333333333 0  0.4333333333333333 0.1333333333333333 0  0.4666666666666667 0.1333333333333333 0  0.5 0.1333333333333333 0  0.5333333333333333 0.1333333333333333 0  0.5666666666666667 0.1333333333333333 0  0.6 0.1333333333333333 0  0.6333333333333333 0.1333333333333333 0  0.6666666666666666 0.1333333333333333 0  0.7 0.1333333333333333 0  0.7333333333333333 0.1333333333333333 0  0.7666666666666667 0.1333333333333333 0  0.8 0.1333333333333333 0  0.8333333333333334 0.1333333333333333 0  0.8666666666666667 0.1333333333333333 0  0.9 0.1333333333333333 0  0.9333333333333333 0.1333333333333333 0  0.9666666666666667 0.1333333333333333 0  1 0.1333333333333333 0  0 0.1666666666666667 0  0.03333333333333333 0.1666666666666667 0  0.06666666666666667 0.1666666666666667 0  0.1 0.1666666666666667 0  0.1333333333333333 0.1666666666666667 0  0.1666666666666667 0.1666666666666667 0  0.2 0.1666666666666667 0  0.2333333333333333 0.1666666666666667 0  0.2666666666666667 0.1666666666666667 0  0.3 0.1666666666666667 0  0.3333333333333333 0.1666666666666667 0  0.3666666666666666 0.1666666666666667 0  0.4 0.1666666666666667 0  0.4333333333333333 0.1666666666666667 0  0.4666666666666667 0.1666666666666667 0  0.5 0.1666666666666667 0  0.5333333333333333 0.1666666666666667 0  0.5666666666666667 0.1666666666666667 0  0.6 0.1666666666666667 0  0.6333333333333333 0.1666666666666667 0  0.6666666666666666 0.1666666666666667 0  0.7 0.1666666666666667 0  0.7333333333333333 0.1666666666666667 0  0.7666666666666667 0.1666666666666667 0  0.8 0.1666666666666667 0  0.8333333333333334 0.1666666666666667 0  0.8666666666666667 0.1666666666666667 0  0.9 0.1666666666666667 0  0.9333333333333333 0.1666666666666667 0  0.9666666666666667 0.1666666666666667 0  1 0.1666666666666667 0  0 0.2 0  0.03333333333333333 0.2 0  0.06666666666666667 0.2 0  0.1 0.2 0  0.1333333333333333 0.2 0  0.1666666666666667 0.2 0  0.2 0.2 0  0.2333333333333333 0.2 0  0.2666666666666667 0.2 0  0.3 0.2 0  0.3333333333333333 0.2 0  0.3666666666666666 0.2 0  0.4 0.2 0  0.4333333333333333 0.2 0  0.4666666666666667 0.2 0  0.5 0.2 0  0.5333333333333333 0.2 0  0.5666666666666667 0.2 0  0.6 0.2 0  0.6333333333333333 0.2 0  0.6666666666666666 0.2 0  0.7 0.2 0  0.7333333333333333 0.2 0  0.7666666666666667 0.2 0  0.8 0.2 0  0.8333333333333334 0.2 0  0.8666666666666667 0.2 0  0.9 0.2 0  0.9333333333333333 0.2 0  0.9666666666666667 0.2 0  1 0.2 0  0 0.2333333333333333 0  0.03333333333333333 0.2333333333333333 0  0.06666666666666667 0.2333333333333333 0  0.1 0.2333333333333333 0  0.1333333333333333 0.2333333333333333 0  0.1666666666666667 0.2333333333333333 0  0.2 0.2333333333333333 0  0.2333333333333333 0.2333333333333333 0  0.2666666666666667 0.2333333333333333 0  0.3 0.2333333333333333 0  0.3333333333333333 0.2333333333333333 0  0.3666666666666666 0.2333333333333333 0  0.4 0.2333333333333333 0  0.4333333333333333 0.2333333333333333 0  0.4666666666666667 0.2333333333333333 0  0.5 0.2333333333333333 0  0.5333333333333333 0.2333333333333333 0  0.5666666666666667 0.2333333333333333 0  0.6 0.2333333333333333 0  0.6333333333333333 0.2333333333333333 0  0.6666666666666666 0.2333333333333333 0  0.7 0.2333333333333333 0  0.7333333333333333 0.2333333333333333 0  0.7666666666666667 0.2333333333333333 0  0.8 0.2333333333333333 0  0.8333333333333334 0.2333333333333333 0  0.8666666666666667 0.2333333333333333 0  0.9 0.2333333333333333 0  0.9333333333333333 0.2333333333333333 0  0.9666666666666667 0.2333333333333333 0  1 0.2333333333333333 0  0 0.2666666666666667 0  0.03333333333333333 0.2666666666666667 0  0.06666666666666667 0.2666666666666667 0  0.1 0.2666666666666667 0  0.1333333333333333 0.2666666666666667 0  0.1666666666666667 0.2666666666666667 0  0.2 0.2666666666666667 0  0.2333333333333333 0.2666666666666667 0  0.2666666666666667 0.2666666666666667 0  0.3 0.2666666666666667 0  0.3333333333333333 0.2666666666666667 0  0.3666666666666666 0.2666666666666667 0  0.4 0.2666666666666667 0  0.4333333333333333 0.2666666666666667 0  0.4666666666666667 0.2666666666666667 0  0.5 0.2666666666666667 0  0.5333333333333333 0.2666666666666667 0  0.5666666666666667 0.2666666666666667 0  0.6 0.2666666666666667 0  0.6333333333333333 0.2666666666666667 0  0.6666666666666666 0.2666666666666667 0  0.7 0.2666666666666667 0  0.7333333333333333 0.2666666666666667 0  0.7666666666666667 0.2666666666666667 0  0.8 0.2666666666666667 0  0.8333333333333334 0.2666666666666667 0  0.8666666666666667 0.2666666666666667 0  0.9 0.2666666666666667 0  0.9333333333333333 0.2666666666666667 0  0.9666666666666667 0.2666666666666667 0  1 0.2666666666666667 0  0 0.3 0  0.03333333333333333 0.3 0  0.06666666666666667 0.3 0  0.1 0.3 0  0.1333333333333333 0.3 0  0.1666666666666667 0.3 0  0.2 0.3 0  0.2333333333333333 0.3 0  0.2666666666666667 0.3 0  0.3 0.3 0  0.3333333333333333 0.3 0  0.3666666666666666 0.3 0  0.4 0.3 0  0.4333333333333333 0.3 0  0.4666666666666667 0.3 0  0.5 0.3 0  0.5333333333333333 0.3 0  0.5666666666666667 0.3 0  0.6 0.3 0  0.6333333333333333 0.3 0  0.6666666666666666 0.3 0  0.7 0.3 0  0.7333333333333333 0.3 0  0.7666666666666667 0.3 0  0.8 0.3 0  0.8333333333333334 0.3 0  0.8666666666666667 0.3 0  0.9 0.3 0  0.9333333333333333 0.3 0  0.9666666666666667 0.3 0  1 0.3 0  0 0.3333333333333333 0  0.03333333333333333 0.3333333333333333 0  0.06666666666666667 0.3333333333333333 0  0.1 0.3333333333333333 0  0.1333333333333333 0.3333333333333333 0  0.1666666666666667 0.3333333333333333 0  0.2 0.3333333333333333 0  0.2333333333333333 0.3333333333333333 0  0.2666666666666667 0.3333333333333333 0  0.3 0.3333333333333333 0  0.3333333333333333 0.3333333333333333 0  0.3666666666666666 0.3333333333333333 0  0.4 0.3333333333333333 0  0.4333333333333333 0.3333333333333333 0  0.4666666666666667 0.3333333333333333 0  0.5 0.3333333333333333 0  0.5333333333333333 0.33333333333333
[...]
<PointData  Scalars="f_18-2"> 
<DataArray  type="Float64"  Name="f_18-2"  format="ascii">1.5934652321429224e-01  1.5934654005531279e-01  1.5934649786242430e-01  1.5934615365822444e-01  1.5934506065426407e-01  1.5934256674128364e-01  1.5933794124304967e-01  1.5933065511532671e-01  1.5932074489748407e-01  1.5930909030014859e-01  1.5929740801313344e-01  1.5928786589713181e-01  1.5928242091305231e-01  1.5928216038509740e-01  1.5928695236586862e-01  1.5929555731722841e-01  1.5930611740570874e-01  1.5931677125958632e-01  1.5932613110931287e-01  1.5933348174114795e-01  1.5933871707735203e-01  1.5934212905731066e-01  1.5934417587328065e-01  1.5934531068743704e-01  1.5934589381611736e-01  1.5934617205833587e-01  1.5934629548889520e-01  1.5934634642835929e-01  1.5934636598111321e-01  1.5934637282768993e-01  1.5934637410832550e-01  1.5934656279811127e-01  1.5934650615372062e-01  1.5934624754364368e-01  1.5934535406787359e-01  1.5934309587461754e-01  1.5933847011367919e-01  1.5933042055596688e-01  1.5931827335059753e-01  1.5930227151645865e-01  1.5928394986388525e-01  1.5926606431574383e-01  1.5925195355257887e-01  1.5924451331130504e-01  1.5924521915536868e-01  1.5925365353668022e-01  1.5926774312257355e-01  1.5928455070507819e-01  1.5930122206673056e-01  1.5931569078522614e-01  1.5932694444029416e-01  1.5933489540697079e-01  1.5934004146527814e-01  1.5934310975479307e-01  1.5934480157086492e-01  1.5934566650808032e-01  1.5934607722197378e-01  1.5934625854841539e-01  1.5934633301237430e-01  1.5934636143657141e-01  1.5934637133222335e-01  1.5934637343745867e-01  1.5934653276637772e-01  1.5934620420068182e-01  1.5934504669415406e-01  1.5934194990307687e-01  1.5933513576434630e-01  1.5932229335844564e-01  1.5930114711961144e-01  1.5927047647618778e-01  1.5923129817583526e-01  1.5918762071659506e-01  1.5914614117189491e-01  1.5911465191931268e-01  1.5909962650534543e-01  1.5910402135485219e-01  1.5912632982253871e-01  1.5916130221214550e-01  1.5920189630347759e-01  1.5924148946281438e-01  1.5927544361800364e-01  1.5930161917673472e-01  1.5931999219631077e-01  1.5933183036325013e-01  1.5933887064986774e-01  1.5934274984623545e-01  1.5934473534351934e-01  1.5934568098010746e-01  1.5934610051112766e-01  1.5934627397254147e-01  1.5934634075814402e-01  1.5934636423709075e-01  1.5934636934569049e-01  1.5934590097528531e-01  1.5934474346703467e-01  1.5934088430100898e-01  1.5933155100803029e-01  1.5931240950341446e-01  1.5927800747461071e-01  1.5922321022843727e-01  1.5914564480196905e-01  1.5904845578906743e-01  1.5894196861380019e-01  1.5884276930209662e-01  1.5876968573935657e-01  1.5873787934694089e-01  1.5875362456109915e-01  1.5881228308481146e-01  1.5890037132902102e-01  1.5900051199346685e-01  1.5909681651710955e-01  1.5917851002700398e-01  1.5924093589376867e-01  1.5928444288837623e-01  1.5931231967800386e-01  1.5932883029774711e-01  1.5933790297062325e-01  1.5934254018841953e-01  1.5934474843007132e-01  1.5934572909725614e-01  1.5934613539589196e-01  1.5934629225780536e-01  1.5934634753523677e-01  1.5934635975112976e-01  1.5934323615314250e-01  1.5933994039359423e-01  1.5932914489658681e-01  1.5930442846481169e-01  1.5925584053001629e-01  1.5917107011629650e-01  1.5903880457048866e-01  1.5885433211177358e-01  1.5862583779929409e-01  1.5837815821647405e-01  1.5815046499181259e-01  1.5798662936926761e-01  1.5792120064755780e-01  1.5796725089187122e-01  1.5811207240488731e-01  1.5832268029903063e-01  1.5855793331918874e-01  1.5878121939870457e-01  1.5896855674332308e-01  1.5911036115613206e-01  1.5920839539482926e-01  1.5927079015140277e-01  1.5930754677738504e-01  1.5932766218096042e-01  1.5933791369925698e-01  1.5934278655724954e-01  1.5934494868934604e-01  1.5934584442829380e-01  1.5934619040060255e-01  1.5934631233060501e-01  1.5934633961951958e-01  1.5933541068896750e-01  1.5932727713600386e-01  1.5930073422401947e-01  1.5924193765111119e-01  1.5912939209945773e-01  1.5893659349684086e-01  1.5863929719713674e-01  1.5822773481599817e-01  1.5772063051669946e-01  1.5717383480569805e-01  1.5667527066756953e-01  1.5632297790284674e-01  1.5619301367140767e-01  1.5631193484073860e-01  1.5664780787871407e-01  1.5712393849079104e-01  1.5764735818511449e-01  1.5813761444262303e-01  1.5854408024398223e-01  1.5884848272109062e-01  1.5905696227211844e-01  1.5918859739436311e-01  1.5926563689309364e-01  1.5930757882612329e-01  1.5932886939948013e-01  1.5933896049805230e-01  1.5934342940690227e-01  1.5934527866434656e-01  1.5934599242121289e-01  1.5934624374460540e-01  1.5934630057720778e-01  1.5931672117522303e-01  1.5929879636586083e-01  1.5924013648577043e-01  1.5911278421307853e-01  1.5887287849283399e-01  1.5846586039507385e-01  1.5784104366955021e-01  1.5697701076489479e-01  1.5591207113018121e-01  1.5476430817050946e-01  1.5372179787038698e-01  1.5299472561532862e-01  1.5274460670315199e-01  1.5302415307331385e-01  1.5375885431630984e-01  1.5477901734666968e-01  1.5588382590283098e-01  1.5690439550191299e-01  1.5773935183911136e-01  1.5835693113577784e-01  1.5877522983624823e-01  1.5903684285881320e-01  1.5918874849874948e-01  1.5927092537869184e-01  1.5931243262256353e-01  1.5933203093842943e-01  1.5934068549064820e-01  1.5934425926485871e-01  1.5934563632271850e-01  1.5934612036178028e-01  1.5934623073267398e-01  1.5927845088666390e-01  1.5924262018447299e-01  1.5912464158822365e-01  1.5887143886643873e-01  1.5839829390842530e-01  1.5759774388999923e-01  1.5636667674643881e-01  1.5465685652898575e-01  1.5253947795883857e-01  1.5025081675821805e-01  1.4817414154951883e-01  1.4673881265992381e-01  1.4627197436724959e-01  1.4687526122688321e-01  1.4838864797680035e-01  1.5045800244767055e-01  1.5266998289155634e-01  1.5468510790830639e-01  1.5630978835141832e-01  1.5749435237188658e-01  1.5828622259246092e-01  1.5877589951596041e-01  1.5905757327947295e-01  1.5920879958855963e-01  1.5928472415959308e-01  1.5932040313221241e-01  1.5933609982588101e-01  1.5934256197019411e-01  1.5934504543223882e-01  1.5934591609475104e-01  1.5934611591194736e-01  1.5920969216885431e-01  1.5914415396398390e-01  1.5892666459873667e-01  1.5846241770894853e-01  1.5759666620307713e-01  1.5612767864936120e-01  1.5385385279767833e-01  1.5067070049624337e-01  1.4670345173503113e-01  1.4240368410057350e-01  1.3850954112599101e-01  1.3583806728507383e-01  1.3500057688588443e-01  1.3618205454793980e-01  1.3907828024322808e-01  1.4301283534526940e-01  1.4718751650098524e-01  1.5094872328730299e-01  1.5393809174685744e-01  1.5608389465743913e-01  1.5749703323917424e-01  1.5835949077874642e-01  1.5885021406705990e-01  1.5911136513207888e-01  1.5924155844700483e-01  1.5930239502876650e-01  1.5932903632388076e-01  1.5933996129950898e-01  1.5934414482386181e-01  1.5934560632594308e-01  1.5934594334255989e-01  1.5910018470616688e-01  1.5898995930252796e-01  1.5862103609964018e-01  1.5783442865984093e-01  1.5636407084074702e-01  1.5385260158358882e-01  1.4992991743977385e-01  1.4439500515539655e-01  1.3747604689670492e-01  1.3000587737881641e-01  1.2330298213343632e-01  1.1875475507237811e-01  1.1735009386132370e-01  1.1938520608449139e-01  1.2438591593454637e-01  1.3123860768575632e-01  1.3854792432944887e-01  1.4511846570971196e-01  1.5028955408711381e-01  1.5394786088087173e-01  1.5631951325971702e-01  1.5774620351314753e-01  1.5854814501664549e-01  1.5897073515382390e-01  1.5917975289578171e-01  1.5927679670214992e-01  1.5931906506619387e-01  1.5933631592390649e-01  1.5934289196363061e-01  1.5934517898275874e-01  1.5934570803672210e-01  1.5894518352025422e-01  1.5877432060444166e-01  1.5819751159562964e-01  1.5696567153236918e-01  1.5465167013474965e-01  1.5066686844493205e-01  1.4439175173423405e-01  1.3551002268160658e-01  1.2448251318707484e-01  1.1278706585818694e-01  1.0254575243085255e-01  9.5743451014430186e-02  9.3641413717080318e-02  9.6606812917005735e-02  1.0410139949437314e-01  1.1468254922234740e-01  1.2626557819351839e-01  1.3682955082102713e-01  1.4515063705903825e-01  1.5098233809869727e-01  1.5470974426693371e-01  1.5691956204754570e-01  1.5814592836809213e-01  1.5878543487792843e-01  1.5909907061051320e-01  1.5924367111460164e-01  1.5930627427234456e-01  1.5933168331201278e-01  1.5934131655449510e-01  1.5934464842761883e-01  1.5934542047461420e-01  1.5875095807462886e-01  1.5850664762410527e-01  1.5767519399991950e-01  1.5589438638838801e-01  1.5253015935487138e-01  1.4669453320644146e-01  1.3746526694049863e-01  1.2447279412262480e-01  1.0867156468945657e-01  9.2507334701662766e-02  7.8961242024524286e-02  7.0291582218305323e-02  6.7606774116157772e-02  7.1183181808735979e-02  8.0668392233600131e-02  9.4771594448916238e-02  1.1100444128122809e-01  1.2635517440034927e-01  1.3865078354458488e-01  1.4726750621574280e-01  1.5272129827365175e-01  1.5591296117367998e-01  1.5766246912143425e-01  1.5856527601129172e-01  1.5900423684804105e-01  1.5920514716503406e-01  1.5929156527369323e-01  1.5932642290837737e-01  1.5933955440661643e-01  1.5934406642730017e-01  1.5934511215712990e-01  1.5853811711462920e-01  1.5821590296775626e-01  1.5711144647929010e-01  1.5473904875668920e-01  1.5023557284346811e-01  1.4238626463715465e-01  1.2998148518284230e-01  1.1275841975048674e-01  9.2485682409726030e-02  7.2778583853280232e-02  5.7227744142567046e-02  4.7780161867725414e-02  4.4876951925230189e-02  4.8509875615001918e-02  5.8718737738998696e-02  7.4948010794041425e-02  9.4953733714559022e-02  1.1493467990856061e-01  1.3146153214452036e-01  1.4316735000900255e-01  1.5055000647319178e-01  1.5482847272544673e-01  1.5714854318113139e-01  1.5833423550928208e-01  1.5890598263885020e-01  1.5916577278248287e-01  1.5927676106348096e-01  1.5932122489927961e-01  1.5933785309121254e-01  1.5934352225413001e-01  1.5934483453373238e-01  1.5833978090529360e-01  1.5794792753356737e-01  1.5659674384386169e-01  1.5368866122388858e-01  1.4815147494822525e-01  1.3848019506566370e-01  1.2325869285567628e-01  1.0248899154693980e-01  7.8907318637076451e-02  5.7195610589704848e-02  4.1131975424128074e-02  3.1926574027208290e-02  2.9148271112011036e-02  3.2442013636267711e-02  4.2246565308021580e-02  5.8956158965110014e-02  8.1095233567867575e-02  1.0457545146661033e-01  1.2477228872633067e-01  1.3933206440595775e-01  1.4853307228879295e-01  1.5383354726481441e-01  1.5668380025136422e-01  1.5812851508238507e-01  1.5881998179447551e-01  1.5913199115930407e-01  1.5926436796460333e-01  1.5931700879650018e-01  1.5933653109506471e-01  1.5934312598440681e-01  1.5934464829491068e-01  1.5819356714951147e-01  1.5775420962359263e-01  1.5623214085927270e-01  1.5295475130244526e-01  1.4670823223890073e-01  1.3579471218427025e-01  1.1868622436702680e-01  9.5651785416717455e-02  7.0197571759362865e-02  4.7709514290907321e-02  3.1891277720541018e-02  2.3251862001140003e-02  2.0686337407696469e-02  2.3586219188404509e-02  3.2649832574677344e-02  4.8981063836370797e-02  7.1869329800239579e-02  9.7323884278836495e-02  1.1995169600088075e-01  1.3654379627206251e-01  1.4707523829712579e-01  1.5312476523363133e-01  1.5635925037728066e-01  1.5798839239146989e-01  1.5876322675784493e-01  1.5911060423804249e-01  1.5925695579443602e-01  1.5931468591530026e-01  1.5933589105846480e-01  1.5934297636372363e-01  1.5934460447457685e-01  1.5812979614069717e-01  1.5767550022062179e-01  1.5609626248008726e-01  1.5270024968234513e-01  1.4623457223824110e-01  1.3494374300692441e-01  1.1725676264752505e-01  9.3511540533929835e-02  6.7465579185781971e-02  4.4758652109035388e-02  2.9070040695542528e-02  2.0647327507201267e-02  1.8138643830595522e-02  2.0842914525200266e-02  2.9537975925580943e-02  4.5568687282144381e-02  6.8535680164371754e-02  9.4577729901569527e-02  1.1807321751294199e-01  1.3545307313399993e-01  1.4651707428401409e-01  1.5286552439604784e-01  1.5624886457619910e-01  1.5794572736003371e-01  1.5874874148012866e-01  1.5910663083386598e-01  1.5925633135749051e-01  1.5931485699875464e-01  1.5933611489418595e-01  1.5934312435816750e-01  1.5934472434338387e-01  1.5816105560270494e-01  1.5772753822331925e-01  1.5621691368457774e-01  1.5297889234829179e-01  1.4683381803520121e-01  1.3611552055713236e-01  1.1927169102463299e-01  9.6440684879218933e-02  7.0988615128775329e-02  4.8328091484491582e-02  3.2299673390949087e-02  2.3487003950925581e-02  2.0785572394206704e-02  2.3569992136764289e-02  3.2513346012170846e-02  4.8691117455306819e-02  7.1423435859910414e-02  9.6830716297988700e-02  1.1956928050245899e-01  1.3633736354179626e-01  1.4700503630240583e-01  1.5312431602211654e-01  1.5638210032235270e-01  1.5801225952241732e-01  1.5878080205048908e-01  1.5912144515560411e-01  1.5926285238231327e-01  1.5931757507758654e-01  1.5933718748714526e-01  1.5934354944797166e-01  1.5934498797174557e-01  1.5827813333857976e-01  1.5789587489056778e-01  1.5656165957851884e-01  1.5371641267329625e-01  1.4834708412720538e-01  1.3900861884206106e-01  1.2426252376081484e-01  1.0390982700996292e-01  8.0422715392494348e-02  5.8459038794619056e-02  4.2009457614947093e-02  3.2450179861744810e-02  2.9380176125971099e-02  3.2414043326562517e-02  4.1942204880991450e-02  5.8334793111222846e-02  8.0212682946204386e-02  1.0367228067242212e-01  1.2411397538496728e-01  1.3899588932906271e-01  1.4843040732484408e-01  1.5384558226610442e-01  1.5673134187949259e-01  1.5817455411007536e-01  1.5885303595711073e-01  1.5915212038930299e-01  1.5927522699076244e-01  1.5932229585925603e-01  1.5933888996040391e-01  1.5934416228589415e-01  1.5934533859561473e-01  1.5845412317333810e-01  1.5814214125650766e-01  1.5705176994644179e-01  1.5474246331840760e-01  1.5042029376967189e-01  1.4294765443334961e-01  1.3111949320525881e-01  1.1448688815833458e-01  9.4496743957696971e-02  7.4619764407726524e-02  5.8612123430756627e-02  4.8649143928746981e-02  4.5267496703895377e-02  4.8447255187275592e-02  5.8192687928839436e-02  7.3981577391277448e-02  9.3736074383430637e-02  1.1381663485869589e-01  1.3071646595190289e-01  1.4282156034550705e-01  1.5046953927638218e-01  1.5486973996109685e-01  1.5722147141338769e-01  1.5839850201927436e-01  1.5895050565003052e-01  1.5919237276511139e-01  1.5929092887383126e-01  1.5932805358626387e-01  1.5934087141026398e-01  1.5934483472767014e-01  1.5934570210492940e-01  1.5865430377934459e-01  1.5841813215472975e-01  1.5759144723869400e-01  1.5585491052927167e-01  1.5263900384621262e-01  1.4713296568108905e-01  1.3844628433079451e-01  1.2609151651875639e-01  1.1074138887747940e-01  9.4606388021414925e-02  8.0688597694477046e-02  7.1436040960280806e-02  6.8110276299288439e-02  7.1048599240548446e-02  7.9940305744855611e-02  9.3604505634530225e-02  1.0971436666117899e-01  1.2530198919676966e-01  1.3802216854811380e-01  1.4702063241808888e-01  1.5270546600959822e-01  1.5599232945513983e-01  1.5775692473803393e-01  1.5864127076885337e-01  1.5905483251682251e-01  1.5923468726246814e-01  1.5930704588602365e-01  1.5933378519323979e-01  1.5934276734220945e-01  1.5934544366264702e-01  1.5934601268949891e-01  1.5884689695083198e-01  1.5868069053062220e-01  1.5809752383331960e-01  1.5688337302704139e-01  1.5466198442627518e-01  1.5090767861820462e-01  1.4504153418036861e-01  1.3669500339835844e-01  1.2614260052846149e-01  1.1463480521765081e-01  1.0419704242233853e-01  9.6892936598041698e-02  9.4133903445524844e-02  9.6424807897595735e-02  1.0335730138172849e-01  1.1362569358752987e-01  1.2522744984474779e-01  1.3607647426597830e-01  1.4476455336604377e-01  1.5088471559104746e-01  1.5476952379450118e-01  1.5703184315538873e-01  1.5825258639960124e-01  1.5886484855911104e-01  1.5914991144072116e-01  1.5927262678963727e-01  1.5932116788434686e-01  1.5933865278921389e-01  1.5934430985167952e-01  1.5934590807670701e-01  1.5934623247198837e-01  1.5901032801906589e-01  1.5890134130800893e-01  1.5851745523404617e-01  1.5772528518964446e-01  1.5629402336150067e-01  1.5391007568000950e-01  1.5023728265547118e-01  1.4505898081081345e-01  1.3850355506256076e-01  1.3124725549466648e-01  1.2449109828783168e-01  1.1961957702197107e-01  1.1772199726327069e-01  1.1924179071929901e-01  1.2385222737763396e-01  1.3054443306442842e-01  1.3793499584610902e-01  1.4473574583906315e-01  1.5015280198092357e-01  1.5398361556826118e-01  1.5643563591145171e-01  1.5787483992119880e-01  1.5865462598963298e-01  1.5904523813573995e-01  1.5922575609483589e-01  1.5930234435873389e-01  1.5933194022057229e-01  1.5934222950863941e-01  1.5934538358729594e-01  1.5934620393055465e-01  1.5934635701107339e-01  1.5913525191548250e-01  1.5906852958011206e-01  1.5883209795357517e-01  1.5834825520698695e-01  1.5748447736926230e-01  1.5606636845620411e-01  1.5391548644754655e-01  1.5092606350426471e-01  1.4717732679306880e-01  1.4303534781620333e-01  1.3915679850612583e-01  1.3633406686389996e-01  1.3522881829521285e-01  1.3612596386734244e-01  1.3882349881480679e-01  1.4270272617191976e-01  1.4695328852185693e-01  1.5085479360491552e-01  1.5397469094407515e-01  1.5619937922116639e-01  1.5763617534467242e-01  1.5848476352256124e-01  1.5894512900194177e-01  1.5917459643358928e-01  1.5927935107355798e-01  1.5932286358860590e-01  1.5933912904739303e-01  1.5934450031075365e-01  1.5934601481565805e-01  1.5934635472336306e-01  1.5934640688371557e-01  1.5922234040809777e-01  1.5918414504801956e-01  1.5904761865066261e-01  1.5877029165747725e-01  1.5828051029585463e-01  1.5748689726574505e-01  1.5630099311173626e-01  1.5467796361759753e-01  1.5267093093540626e-01  1.5047682486577599e-01  1.4843625316633047e-01  1.4695946436288962e-01  1.4639306275397909e-01  1.4688738209718974e-01  1.4833284577889552e-01  1.5039979721651767e-01  1.5266306691727388e-01  1.5474799182082036e-01  1.5642688149217196e-01  1.5763374340147845e-01  1.5841820135155063e-01  1.5888261448782232e-01  1.5913371612390498e-01  1.5925757010328528e-01  1.5931302678627829e-01  1.5933535444547642e-01  1.5934330226490848e-01  1.5934572543006637e-01  1.5934631512942815e-01  1.5934640784628992e-01  1.5934641244622982e-01  1.5927815611619930e-01  1.5925769055591629e-01  1.5918366263897551e-01  1.5903424797839869e-01  1.5877283636070511e-01  1.5835403849056459e-01  1.5773633212571031e-01  1.5690283368748392e-01  1.5588678454070762e-01  1.5479086801161832e-01  1.5378424334153337e-01  1.5306616662815414e-01  1.5280288940645662e-01  1.5306465041906925e-01  1.5379541285602316e-01  1.5483283535243086e-01  1.5596876229216597e-01  1.5701888817138526e-01  1.5786881222900703e-01  1.5848249780096593e-01  1.5888203180090252e-01  1.5911781149553647e-01  1.5924406325080676e-01  1.5930521299200009e-01  1.5933179160800859e-01  1.5934200238528518e-01  1.5934536966791704e-01  1.5934626248072048e-01  1.5934641630510910e-01  1.5934641088866064e-01  1.5934640037257650e-01  1.5931122231714223e-01  1.5930095407560230e-01  1.5926322644474891e-01  1.5918748988623169e-01  1.5905604527318640e-01  1.5884747270263794e-01  1.5854321318131684e-01  1.5813765680521052e-01  1.5764967033993343e-01  1.5713035395876396e-01  1.5666017362482310e-01  1.5633136169105510e-01  1.5621914646586602e-01  1.5635371856243555e-01  1.5670722443628121e-01  1.5720335432571109e-01  1.5774495766487623e-01  1.5824567313116475e-01  1.5865116508741864e-01  1.5894365878491915e-01  1.5913321373017347e-01  1.5924394736792766e-01  1.5930218594299098e-01  1.5932958894203117e-01  1.5934096987667712e-01  1.5934503111572668e-01  1.5934620338346686e-01  1.5934642944336039e-01  1.5934642491811590e-01  1.5934639756185087e-01  1.5934638703310311e-01  1.5932939648008596e-01  1.5932457241132569e-01  1.5930649074027667e-01  1.5927035796010899e-01  1.5920807852839364e-01  1.5911005264665756e-01  1.5896838270574254e-01  1.5878152291303860e-01  1.5855928209189213e-01  1.5832580048819889e-01  1.5811765564523259e-01  1.5797566332902965e-01  1.5793221660720097e-01  1.5799935032799378e-01  1.5816351560275749e-01  1.5839009970233067e-01  1.5863560406452556e-01  1.5886147895048847e-01  1.5904348452099965e-01  1.5917380898705094e-01  1.5925727392376982e-01  1.5930512587636653e-01  1.5932957274289006e-01  1.5934057096070