<?xml version="1.0"?>
<VTKFile type="UnstructuredGrid"  version="0.1"  >
<UnstructuredGrid>
<Piece  NumberOfPoints="441" NumberOfCells="800">
<Points>
<DataArray  type="Float64"  NumberOfComponents="3"  format="ascii">-2 -2 0  -1.8 -2 0  -1.6 -2 0  -1.4 -2 0  -1.2 -2 0  -1 -2 0  -0.8 -2 0  -0.6000000000000001 -2 0  -0.3999999999999999 -2 0  -0.2 -2 0  0 -2 0  0.2000000000000002 -2 0  0.3999999999999999 -2 0  0.6000000000000001 -2 0  0.7999999999999998 -2 0  1 -2 0  1.2 -2 0  1.4 -2 0  1.6 -2 0  1.8 -2 0  2 -2 0  -2 -1.8 0  -1.8 -1.8 0  -1.6 -1.8 0  -1.4 -1.8 0  -1.2 -1.8 0  -1 -1.8 0  -0.8 -1.8 0  -0.6000000000000001 -1.8 0  -0.3999999999999999 -1.8 0  -0.2 -1.8 0  0 -1.8 0  0.2000000000000002 -1.8 0  0.3999999999999999 -1.8 0  0.6000000000000001 -1.8 0  0.7999999999999998 -1.8 0  1 -1.8 0  1.2 -1.8 0  1.4 -1.8 0  1.6 -1.8 0  1.8 -1.8 0  2 -1.8 0  -2 -1.6 0  -1.8 -1.6 0  -1.6 -1.6 0  -1.4 -1.6 0  -1.2 -1.6 0  -1 -1.6 0  -0.8 -1.6 0  -0.6000000000000001 -1.6 0  -0.3999999999999999 -1.6 0  -0.2 -1.6 0  0 -1.6 0  0.2000000000000002 -1.6 0  0.3999999999999999 -1.6 0  0.6000000000000001 -1.6 0  0.7999999999999998 -1.6 0  1 -1.6 0  1.2 -1.6 0  1.4 -1.6 0  1.6 -1.6 0  1.8 -1.6 0  2 -1.6 0  -2 -1.4 0  -1.8 -1.4 0  -1.6 -1.4 0  -1.4 -1.4 0  -1.2 -1.4 0  -1 -1.4 0  -0.8 -1.4 0  -0.6000000000000001 -1.4 0  -0.3999999999999999 -1.4 0  -0.2 -1.4 0  0 -1.4 0  0.2000000000000002 -1.4 0  0.3999999999999999 -1.4 0  0.6000000000000001 -1.4 0  0.7999999999999998 -1.4 0  1 -1.4 0  1.2 -1.4 0  1.4 -1.4 0  1.6 -1.4 0  1.8 -1.4 0  2 -1.4 0  -2 -1.2 0  -1.8 -1.2 0  -1.6 -1.2 0  -1.4 -1.2 0  -1.2 -1.2 0  -1 -1.2 0  -0.8 -1.2 0  -0.6000000000000001 -1.2 0  -0.3999999999999999 -1.2 0  -0.2 -1.2 0  0 -1.2 0  0.2000000000000002 -1.2 0  0.3999999999999999 -1.2 0  0.6000000000000001 -1.2 0  0.7999999999999998 -1.2 0  1 -1.2 0  1.2 -1.2 0  1.4 -1.2 0  1.6 -1.2 0  1.8 -1.2 0  2 -1.2 0  -2 -1 0  -1.8 -1 0  -1.6 -1 0  -1.4 -1 0  -1.2 -1 0  -1 -1 0  -0.8 -1 0  -0.6000000000000001 -1 0  -0.3999999999999999 -1 0  -0.2 -1 0  0 -1 0  0.2000000000000002 -1 0  0.3999999999999999 -1 0  0.6000000000000001 -1 0  0.7999999999999998 -1 0  1 -1 0  1.2 -1 0  1.4 -1 0  1.6 -1 0  1.8 -1 0  2 -1 0  -2 -0.8 0  -1.8 -0.8 0  -1.6 -0.8 0  -1.4 -0.8 0  -1.2 -0.8 0  -1 -0.8 0  -0.8 -0.8 0  -0.6000000000000001 -0.8 0  -0.3999999999999999 -0.8 0  -0.2 -0.8 0  0 -0.8 0  0.2000000000000002 -0.8 0  0.3999999999999999 -0.8 0  0.6000000000000001 -0.8 0  0.7999999999999998 -0.8 0  1 -0.8 0  1.2 -0.8 0  1.4 -0.8 0  1.6 -0.8 0  1.8 -0.8 0  2 -0.8 0  -2 -0.6000000000000001 0  -1.8 -0.6000000000000001 0  -1.6 -0.6000000000000001 0  -1.4 -0.6000000000000001 0  -1.2 -0.6000000000000001 0  -1 -0.6000000000000001 0  -0.8 -0.6000000000000001 0  -0.6000000000000001 -0.6000000000000001 0  -0.3999999999999999 -0.6000000000000001 0  -0.2 -0.6000000000000001 0  0 -0.6000000000000001 0  0.2000000000000002 -0.6000000000000001 0  0.3999999999999999 -0.6000000000000001 0  0.6000000000000001 -0.6000000000000001 0  0.7999999999999998 -0.6000000000000001 0  1 -0.6000000000000001 0  1.2 -0.6000000000000001 0  1.4 -0.6000000000000001 0  1.6 -0.6000000000000001 0  1.8 -0.6000000000000001 0  2 -0.6000000000000001 0  -2 -0.3999999999999999 0  -1.8 -0.3999999999999999 0  -1.6 -0.3999999999999999 0  -1.4 -0.3999999999999999 0  -1.2 -0.3999999999999999 0  -1 -0.3999999999999999 0  -0.8 -0.3999999999999999 0  -0.6000000000000001 -0.3999999999999999 0  -0.3999999999999999 -0.3999999999999999 0  -0.2 -0.3999999999999999 0  0 -0.3999999999999999 0  0.2000000000000002 -0.3999999999999999 0  0.3999999999999999 -0.3999999999999999 0  0.6000000000000001 -0.3999999999999999 0  0.7999999999999998 -0.3999999999999999 0  1 -0.3999999999999999 0  1.2 -0.3999999999999999 0  1.4 -0.3999999999999999 0  1.6 -0.3999999999999999 0  1.8 -0.3999999999999999 0  2 -0.3999999999999999 0  -2 -0.2 0  -1.8 -0.2 0  -1.6 -0.2 0  -1.4 -0.2 0  -1.2 -0.2 0  -1 -0.2 0  -0.8 -0.2 0  -0.6000000000000001 -0.2 0  -0.3999999999999999 -0.2 0  -0.2 -0.2 0  0 -0.2 0  0.2000000000000002 -0.2 0  0.3999999999999999 -0.2 0  0.6000000000000001 -0.2 0  0.7999999999999998 -0.2 0  1 -0.2 0  1.2 -0.2 0  1.4 -0.2 0  1.6 -0.2 0  1.8 -0.2 0  2 -0.2 0  -2 0 0  -1.8 0 0  -1.6 0 0  -1.4 0 0  -1.2 0 0  -1 0 0  -0.8 0 0  -0.6000000000000001 0 0  -0.3999999999999999 0 0  -0.2 0 0  0 0 0  0.2000000000000002 0 0  0.3999999999999999 0 0  0.6000000000000001 0 0  0.7999999999999998 0 0  1 0 0  1.2 0 0  1.4 0 0  1.6 0 0  1.8 0 0  2 0 0  -2 0.2000000000000002 0  -1.8 0.2000000000000002 0  -1.6 0.2000000000000002 0  -1.4 0.2000000000000002 0  -1.2 0.2000000000000002 0  -1 0.2000000000000002 0  -0.8 0.2000000000000002 0  -0.6000000000000001 0.2000000000000002 0  -0.3999999999999999 0.2000000000000002 0  -0.2 0.2000000000000002 0  0 0.2000000000000002 0  0.2000000000000002 0.2000000000000002 0  0.3999999999999999 0.2000000000000002 0  0.6000000000000001 0.2000000000000002 0  0.7999999999999998 0.2000000000000002 0  1 0.2000000000000002 0  1.2 0.2000000000000002 0  1.4 0.2000000000000002 0  1.6 0.2000000000000002 0  1.8 0.2000000000000002 0  2 0.2000000000000002 0  -2 0.3999999999999999 0  -1.8 0.3999999999999999 0  -1.6 0.3999999999999999 0  -1.4 0.3999999999999999 0  -1.2 0.3999999999999999 0  -1 0.3999999999999999 0  -0.8 0.3999999999999999 0  -0.6000000000000001 0.3999999999999999 0  -0.3999999999999999 0.3999999999999999 0  -0.2 0.3999999999999999 0  0 0.3999999999999999 0  0.2000000000000002 0.3999999999999999 0  0.3999999999999999 0.3999999999999999 0  0.6000000000000001 0.3999999999999999 0  0.7999999999999998 0.3999999999999999 0  1 0.3999999999999999 0  1.2 0.3999999999999999 0  1.4 0.3999999999999999 0  1.6 0.3999999999999999 0  1.8 0.3999999999999999 0  2 0.3999999999999999 0  -2 0.6000000000000001 0  -1.8 0.6000000000000001 0  -1.6 0.6000000000000001 0  -1.4 0.6000000000000001 0  -1.2 0.6000000000000001 0  -1 0.6000000000000001 0  -0.8 0.6000000000000001 0  -0.6000000000000001 0.6000000000000001 0  -0.3999999999999999 0.6000000000000001 0  -0.2 0.6000000000000001 0  0 0.6000000000000001 0  0.2000000000000002 0.6000000000000001 0  0.3999999999999999 0.6000000000000001 0  0.6000000000000001 0.6000000000000001 0  0.7999999999999998 0.6000000000000001 0  1 0.6000000000000001 0  1.2 0.6000000000000001 0  1.4 0.6000000000000001 0  1.6 0.6000000000000001 0  1.8 0.6000000000000001 0  2 0.6000000000000001 0  -2 0.7999999999999998 0  -1.8 0.7999999999999998 0  -1.6 0.7999999999999998 0  -1.4 0.7999999999999998 0  -1.2 0.7999999999999998 0  -1 0.7999999999999998 0  -0.8 0.7999999999999998 0  -0.6000000000000001 0.7999999999999998 0  -0.3999999999999999 0.7999999999999998 0  -0.2 0.7999999999999998 0  0 0.7999999999999998 0  0.2000000000000002 0.7999999999999998 0  0.3999999999999999 0.7999999999999998 0  0.6000000000000001 0.7999999999999998 0  0.7999999999999998 0.7999999999999998 0  1 0.7999999999999998 0  1.2 0.7999999999999998 0  1.4 0.7999999999999998 0  1.6 0.7999999999999998 0  1.8 0.7999999999999998 0  2 0.7999999999999998 0  -2 1 0  -1.8 1 0  -1.6 1 0  -1.4 1 0  -1.2 1 0  -1 1 0  -0.8 1 0  -0.6000000000000001 1 0  -0.3999999999999999 1 0  -0.2 1 0  0 1 0  0.2000000000000002 1 0  0.3999999999999999 1 0  0.6000000000000001 1 0  0.7999999999999998 1 0  1 1 0  1.2 1 0  1.4 1 0  1.6 1 0  1.8 1 0  2 1 0  -2 1.2 0  -1.8 1.2 0  -1.6 1.2 0  -1.4 1.2 0  -1.2 1.2 0  -1 1.2 0  -0.8 1.2 0  -0.6000000000000001 1.2 0  -0.3999999999999999 1.2 0  -0.2 1.2 0  0 1.2 0  0.2000000000000002 1.2 0  0.3999999999999999 1.2 0  0.6000000000000001 1.2 0  0.7999999999999998 1.2 0  1 1.2 0  1.2 1.2 0  1.4 1.2 0  1.6 1.2 0  1.8 1.2 0  2 1.2 0  -2 1.4 0  -1.8 1.4 0  -1.6 1.4 0  -1.4 1.4 0  -1.2 1.4 0  -1 1.4 0  -0.8 1.4 0  -0.6000000000000001 1.4 0  -0.3999999999999999 1.4 0  -0.2 1.4 0  0 1.4 0  0.2000000000000002 1.4 0  0.3999999999999999 1.4 0  0.6000000000000001 1.4 0  0.7999999999999998 1.4 0  1 1.4 0  1.2 1.4 0  1.4 1.4 0  1.6 1.4 0  1.8 1.4 0  2 1.4 0  -2 1.6 0  -1.8 1.6 0  -1.6 1.6 0  -1.4 1.6 0  -1.2 1.6 0  -1 1.6 0  -0.8 1.6 0  -0.6000000000000001 1.6 0  -0.3999999999999999 1.6 0  -0.2 1.6 0  0 1.6 0  0.2000000000000002 1.6 0  0.3999999999999999 1.6 0  0.6000000000000001 1.6 0  0.7999999999999998 1.6 0  1 1.6 0  1.2 1.6 0  1.4 1.6 0  1.6 1.6 0  1.8 1.6 0  2 1.6 0  -2 1.8 0  -1.8 1.8 0  -1.6 1.8 0  -1.4 1.8 0  -1.2 1.8 0  -1 1.8 0  -0.8 1.8 0  -0.6000000000000001 1.8 0  -0.3999999999999999 1.8 0  -0.2 1.8 0  0 1.8 0  0.2000000000000002 1.8 0  0.3999999999999999 1.8 0  0.6000000000000001 1.8 0  0.7999999999999998 1.8 0  1 1.8 0  1.2 1.8 0  1.4 1.8 0  1.6 1.8 0  1.8 1.8 0  2 1.8 0  -2 2 0  -1.8 2 0  -1.6 2 0  -1.4 2 0  -1.2 2 0  -1 2 0  -0.8 2 0  -0.6000000000000001 2 0  -0.3999999999999999 2 0  -0.2 2 0  0 2 0  0.2000000000000002 2 0  0.3999999999999999 2 0  0.6000000000000001 2 0  0.7999999999999998 2 0  1 2 0  1.2 2 0  1.4 2 0  1.6 2 0  1.8 2 0  2 2 0  </DataArray>
</Points>
<Cells>
[...]
<PointData  Scalars="f_18-2"> 
<DataArray  type="Float64"  Name="f_18-2"  format="ascii">1.8390366800474353e-01  1.8390366765134630e-01  1.8390366694725047e-01  1.8390366743642328e-01  1.8390366894286750e-01  1.8390366893529453e-01  1.8390366776651956e-01  1.8390366742907860e-01  1.8390366767470351e-01  1.8390366773069647e-01  1.8390366770150282e-01  1.8390366769100602e-01  1.8390366768181887e-01  1.8390366768268190e-01  1.8390366768475783e-01  1.8390366768453112e-01  1.8390366768432120e-01  1.8390366768432265e-01  1.8390366768436195e-01  1.8390366768434985e-01  1.8390366768434990e-01  1.8390366767072355e-01  1.8390366718407242e-01  1.8390366790154686e-01  1.8390366951453077e-01  1.8390366798931729e-01  1.8390366480233974e-01  1.8390366522811533e-01  1.8390366738988256e-01  1.8390366778409745e-01  1.8390366752290815e-01  1.8390366760147009e-01  1.8390366767283917e-01  1.8390366768877101e-01  1.8390366769030461e-01  1.8390366768350114e-01  1.8390366768361077e-01  1.8390366768450903e-01  1.8390366768441530e-01  1.8390366768433589e-01  1.8390366768436070e-01  1.8390366768436767e-01  1.8390366682546463e-01  1.8390366787116316e-01  1.8390367020294882e-01  1.8390366632539223e-01  1.8390365881196338e-01  1.8390366626081114e-01  1.8390367920183570e-01  1.8390367674460273e-01  1.8390366946888845e-01  1.8390366833455857e-01  1.8390366831729449e-01  1.8390366774198399e-01  1.8390366763427118e-01  1.8390366765934224e-01  1.8390366768631042e-01  1.8390366768979777e-01  1.8390366768298599e-01  1.8390366768411595e-01  1.8390366768452648e-01  1.8390366768434382e-01  1.8390366768429875e-01  1.8390366715940673e-01  1.8390366987600071e-01  1.8390366648382098e-01  1.8390365476493017e-01  1.8390367612721997e-01  1.8390371138472819e-01  1.8390367485280143e-01  1.8390362337167807e-01  1.8390363700797369e-01  1.8390366116949169e-01  1.8390366484713255e-01  1.8390366691457910e-01  1.8390366818210807e-01  1.8390366781692258e-01  1.8390366766763075e-01  1.8390366765509158e-01  1.8390366769062635e-01  1.8390366768695757e-01  1.8390366768274533e-01  1.8390366768449951e-01  1.8390366768448255e-01  1.8390366928867691e-01  1.8390366862829682e-01  1.8390365686359356e-01  1.8390367548227105e-01  1.8390373570777982e-01  1.8390362215463085e-01  1.8390345095367708e-01  1.8390362065888266e-01  1.8390381797160338e-01  1.8390375217945895e-01  1.8390367952185629e-01  1.8390367074816755e-01  1.8390366504200176e-01  1.8390366639609962e-01  1.8390366800513600e-01  1.8390366779937237e-01  1.8390366766241273e-01  1.8390366766331998e-01  1.8390366769609123e-01  1.8390366768233887e-01  1.8390366768479605e-01  1.8390367009657715e-01  1.8390366380679590e-01  1.8390366292153276e-01  1.8390372227012178e-01  1.8390362481423858e-01  1.8390329165492744e-01  1.8390387863962698e-01  1.8390474915051910e-01  1.8390399722204526e-01  1.8390326798604745e-01  1.8390353287538072e-01  1.8390369029259240e-01  1.8390368121291853e-01  1.8390367689921588e-01  1.8390366524805629e-01  1.8390366689483201e-01  1.8390366794308632e-01  1.8390366775489778e-01  1.8390366762888094e-01  1.8390366769825203e-01  1.8390366767917279e-01  1.8390366844877717e-01  1.8390366253767651e-01  1.8390368361031781e-01  1.8390369261236822e-01  1.8390339041877610e-01  1.8390386661231026e-01  1.8390588509126551e-01  1.8390295018139624e-01  1.8389830334178486e-01  1.8390153457008196e-01  1.8390420394977916e-01  1.8390346731822832e-01  1.8390348143136515e-01  1.8390363954439060e-01  1.8390367720628253e-01  1.8390367558670845e-01  1.8390366431825370e-01  1.8390366800205787e-01  1.8390366780017617e-01  1.8390366763405883e-01  1.8390366770453240e-01  1.8390366714755579e-01  1.8390366589856835e-01  1.8390368831614456e-01  1.8390360418387311e-01  1.8390352056784062e-01  1.8390508470414163e-01  1.8390301499037567e-01  1.8388956540775436e-01  1.8390342163524712e-01  1.8392932115287525e-01  1.8391525761356300e-01  1.8390509080743989e-01  1.8390548065348181e-01  1.8390375224406363e-01  1.8390356434564017e-01  1.8390363044208224e-01  1.8390369110521770e-01  1.8390366291775795e-01  1.8390366804619782e-01  1.8390366773556838e-01  1.8390366765981828e-01  1.8390366733459787e-01  1.8390366801414318e-01  1.8390367605163963e-01  1.8390358880747767e-01  1.8390388821551690e-01  1.8390459281631552e-01  1.8389646997593537e-01  1.8390298416340153e-01  1.8400075930773852e-01  1.8394351925998245e-01  1.8379337156869854e-01  1.8385819576363557e-01  1.8389596051360951e-01  1.8390191067614262e-01  1.8390542664055551e-01  1.8390351251126338e-01  1.8390360158481323e-01  1.8390368935726611e-01  1.8390366453567569e-01  1.8390366798367916e-01  1.8390366759622018e-01  1.8390366770463673e-01  1.8390366772371955e-01  1.8390366901927621e-01  1.8390363518481165e-01  1.8390393387975157e-01  1.8390310359152803e-01  1.8389787623063733e-01  1.8393884574221883e-01  1.8394717694511709e-01  1.8318076578999976e-01  1.8333311811262237e-01  1.8425898301350710e-01  1.8396483741250308e-01  1.8389618248595710e-01  1.8389067865507433e-01  1.8390663603840457e-01  1.8390348601596634e-01  1.8390364459940692e-01  1.8390367305840194e-01  1.8390366696686175e-01  1.8390366791581625e-01  1.8390366773945577e-01  1.8390366745660072e-01  1.8390366887669010e-01  1.8390365957400029e-01  1.8390376306941555e-01  1.8390296392023145e-01  1.8390390400903819e-01  1.8393760881573457e-01  1.8375145033891058e-01  1.8329580186447672e-01  1.8972486938429325e-01  1.9049835953213420e-01  1.8372271594119202e-01  1.8440173482508468e-01  1.8390485473076651e-01  1.8389108580194372e-01  1.8390540434895797e-01  1.8390353322328751e-01  1.8390368383491318e-01  1.8390366477644085e-01  1.8390366847037762e-01  1.8390366770888567e-01  1.8390366759184160e-01  1.8390366839415362e-01  1.8390366368755559e-01  1.8390368510258237e-01  1.8390352106950508e-01  1.8390465638455306e-01  1.8391158324237672e-01  1.8372877260686057e-01  1.8433591312674186e-01  1.9096250876089815e-01  1.3616972042962497e-01  1.2294266282045374e-01  1.8024391047977545e-01  1.8443421989324629e-01  1.8389506562416816e-01  1.8390245170294062e-01  1.8390370980577603e-01  1.8390364398560305e-01  1.8390367590714857e-01  1.8390366560685673e-01  1.8390366768949529e-01  1.8390366767320909e-01  1.8390366770943326e-01  1.8390366726277654e-01  1.8390366998080643e-01  1.8390368921855560e-01  1.8390339795037064e-01  1.8390540953290499e-01  1.8385479793363735e-01  1.8462822511599863e-01  1.8538673788035787e-01  9.9360869653734571e-02  1.1714294078898091e-02  1.1696069386664702e-01  1.8165667251077555e-01  1.8399701039510394e-01  1.8389375040070655e-01  1.8390570353793476e-01  1.8390345411353787e-01  1.8390368864920789e-01  1.8390366027406382e-01  1.8390366768001623e-01  1.8390366769455474e-01  1.8390366761436452e-01  1.8390366829025834e-01  1.8390366382356438e-01  1.8390368879474034e-01  1.8390346514634828e-01  1.8390561148297488e-01  1.8389377560422931e-01  1.8400120829340447e-01  1.8160272621438445e-01  1.1552325684825764e-01  1.1825457696545198e-02  1.0125814765923846e-01  1.8525442967074451e-01  1.8462537011292346e-01  1.8385649152697420e-01  1.8390528838493600e-01  1.8390337032137369e-01  1.8390369262841172e-01  1.8390367135965932e-01  1.8390366768303062e-01  1.8390366768986041e-01  1.8390366765804420e-01  1.8390366781403000e-01  1.8390366662755561e-01  1.8390367569529761e-01  1.8390363883671679e-01  1.8390372399902347e-01  1.8390251206656671e-01  1.8389462673664619e-01  1.8443378015000056e-01  1.8028654680153425e-01  1.2324282080771828e-01  1.3760190661627850e-01  1.9061458401968073e-01  1.8435481924782404e-01  1.8373224049425324e-01  1.8391036553856213e-01  1.8390481817496790e-01  1.8390350307150488e-01  1.8390370056115982e-01  1.8390366768491687e-01  1.8390366768270633e-01  1.8390366769193747e-01  1.8390366764182228e-01  1.8390366809674585e-01  1.8390366446695267e-01  1.8390368452077005e-01  1.8390353737028955e-01  1.8390535547823486e-01  1.8389130160611186e-01  1.8390433179252555e-01  1.8440200980744481e-01  1.8370345530265414e-01  1.9034729767501340e-01  1.8952813193837165e-01  1.8333587085470807e-01  1.8375228620520240e-01  1.8393557656283047e-01  1.8390443491874778e-01  1.8390285505602832e-01  1.8390386707942863e-01  1.8390366768448632e-01  1.8390366768378366e-01  1.8390366768874042e-01  1.8390366765757515e-01  1.8390366779702796e-01  1.8390366706949407e-01  1.8390367328501095e-01  1.8390364170284496e-01  1.8390350449309523e-01  1.8390656250368984e-01  1.8389086234887228e-01  1.8389600341549275e-01  1.8396521738080815e-01  1.8426152469398027e-01  1.8335147827253193e-01  1.8320273129454981e-01  1.8394292673729820e-01  1.8393791533360676e-01  1.8389845787185150e-01  1.8390290802223636e-01  1.8390423357005153e-01  1.8390366768428285e-01  1.8390366768462729e-01  1.8390366768242181e-01  1.8390366769432090e-01  1.8390366764071847e-01  1.8390366800737007e-01  1.8390366441317302e-01  1.8390369015131205e-01  1.8390359778387677e-01  1.8390352442814814e-01  1.8390540669492061e-01  1.8390190489145186e-01  1.8389591749786185e-01  1.8385882409543872e-01  1.8379461565203339e-01  1.8394152668151059e-01  1.8399776353565178e-01  1.8390356786117965e-01  1.8389665961594251e-01  1.8390444503048894e-01  1.8390415642331884e-01  1.8390366768434646e-01  1.8390366768440888e-01  1.8390366768403774e-01  1.8390366768667199e-01  1.8390366766992999e-01  1.8390366771872735e-01  1.8390366808458072e-01  1.8390366277925588e-01  1.8390369144345173e-01  1.8390362957308123e-01  1.8390356560660234e-01  1.8390375517668550e-01  1.8390549366578218e-01  1.8390501912588575e-01  1.8391475959604017e-01  1.8392878159518677e-01  1.8390374030478260e-01  1.8389001065041907e-01  1.8390291806256245e-01  1.8390506635992712e-01  1.8390340230348595e-01  1.8390366768437583e-01  1.8390366768431046e-01  1.8390366768449570e-01  1.8390366768364927e-01  1.8390366769040131e-01  1.8390366764638585e-01  1.8390366779167142e-01  1.8390366794638774e-01  1.8390366440528003e-01  1.8390367623520168e-01  1.8390367592525128e-01  1.8390363565843454e-01  1.8390347709076474e-01  1.8390348348848881e-01  1.8390433492851613e-01  1.8390176753361137e-01  1.8389836903922743e-01  1.8390278149058645e-01  1.8390577909056796e-01  1.8390393315458209e-01  1.8390314115528852e-01  1.8390366768435101e-01  1.8390366768435518e-01  1.8390366768432861e-01  1.8390366768485508e-01  1.8390366767918653e-01  1.8390366771581104e-01  1.8390366757345997e-01  1.8390366782143774e-01  1.8390366820612369e-01  1.8390366611210451e-01  1.8390366278244297e-01  1.8390368606467752e-01  1.8390369499156942e-01  1.8390371412024067e-01  1.8390339197123540e-01  1.8390283052461256e-01  1.8390426093072934e-01  1.8390580143380011e-01  1.8390411209621949e-01  1.8390294956262246e-01  1.8390354798301548e-01  </DataArray> 
</PointData> 
</Piece>
</UnstructuredGrid>
</VTKFile>