<?xml version="1.0"?>
<VTKFile type="UnstructuredGrid"  version="0.1"  >
<UnstructuredGrid>
<Piece  NumberOfPoints="961" NumberOfCells="1800">
<Points>
<DataArray  type="Float64"  NumberOfComponents="3"  format="ascii">0 0 0  0.03333333333333333 0 0  0.06666666666666667 0 0  0.1 0 0  0.1333333333333333 0 0  0.1666666666666667 0 0  0.2 0 0  0.2333333333333333 0 0  0.2666666666666667 0 0  0.3 0 0  0.3333333333333333 0 0  0.3666666666666666 0 0  0.4 0 0  0.4333333333333333 0 0  0.4666666666666667 0 0  0.5 0 0  0.5333333333333333 0 0  0.5666666666666667 0 0  0.6 0 0  0.6333333333333333 0 0  0.6666666666666666 0 0  0.7 0 0  0.7333333333333333 0 0  0.7666666666666667 0 0  0.8 0 0  0.8333333333333334 0 0  0.8666666666666667 0 0  0.9 0 0  0.9333333333333333 0 0  0.9666666666666667 0 0  1 0 0  0 0.03333333333333333 0  0.03333333333333333 0.03333333333333333 0  0.06666666666666667 0.03333333333333333 0  0.1 0.03333333333333333 0  0.1333333333333333 0.03333333333333333 0  0.1666666666666667 0.03333333333333333 0  0.2 0.03333333333333333 0  0.2333333333333333 0.03333333333333333 0  0.2666666666666667 0.03333333333333333 0  0.3 0.03333333333333333 0  0.3333333333333333 0.03333333333333333 0  0.3666666666666666 0.03333333333333333 0  0.4 0.03333333333333333 0  0.4333333333333333 0.03333333333333333 0  0.4666666666666667 0.03333333333333333 0  0.5 0.03333333333333333 0  0.5333333333333333 0.03333333333333333 0  0.5666666666666667 0.03333333333333333 0  0.6 0.03333333333333333 0  0.6333333333333333 0.03333333333333333 0  0.6666666666666666 0.03333333333333333 0  0.7 0.03333333333333333 0  0.7333333333333333 0.03333333333333333 0  0.7666666666666667 0.03333333333333333 0  0.8 0.03333333333333333 0  0.8333333333333334 0.03333333333333333 0  0.8666666666666667 0.03333333333333333 0  0.9 0.03333333333333333 0  0.9333333333333333 0.03333333333333333 0  0.9666666666666667 0.03333333333333333 0  1 0.03333333333333333 0  0 0.06666666666666667 0  0.03333333333333333 0.06666666666666667 0  0.06666666666666667 0.06666666666666667 0  0.1 0.06666666666666667 0  0.1333333333333333 0.06666666666666667 0  0.1666666666666667 0.06666666666666667 0  0.2 0.06666666666666667 0  0.2333333333333333 0.06666666666666667 0  0.2666666666666667 0.06666666666666667 0  0.3 0.06666666666666667 0  0.3333333333333333 0.06666666666666667 0  0.3666666666666666 0.06666666666666667 0  0.4 0.06666666666666667 0  0.4333333333333333 0.06666666666666667 0  0.4666666666666667 0.06666666666666667 0  0.5 0.06666666666666667 0  0.5333333333333333 0.06666666666666667 0  0.5666666666666667 0.06666666666666667 0  0.6 0.06666666666666667 0  0.6333333333333333 0.06666666666666667 0  0.6666666666666666 0.06666666666666667 0  0.7 0.06666666666666667 0  0.7333333333333333 0.06666666666666667 0  0.7666666666666667 0.06666666666666667 0  0.8 0.06666666666666667 0  0.8333333333333334 0.06666666666666667 0  0.8666666666666667 0.06666666666666667 0  0.9 0.06666666666666667 0  0.9333333333333333 0.06666666666666667 0  0.9666666666666667 0.06666666666666667 0  1 0.06666666666666667 0  0 0.1 0  0.03333333333333333 0.1 0  0.06666666666666667 0.1 0  0.1 0.1 0  0.1333333333333333 0.1 0  0.1666666666666667 0.1 0  0.2 0.1 0  0.2333333333333333 0.1 0  0.2666666666666667 0.1 0  0.3 0.1 0  0.3333333333333333 0.1 0  0.3666666666666666 0.1 0  0.4 0.1 0  0.4333333333333333 0.1 0  0.4666666666666667 0.1 0  0.5 0.1 0  0.5333333333333333 0.1 0  0.5666666666666667 0.1 0  0.6 0.1 0  0.6333333333333333 0.1 0  0.6666666666666666 0.1 0  0.7 0.1 0  0.7333333333333333 0.1 0  0.7666666666666667 0.1 0  0.8 0.1 0  0.8333333333333334 0.1 0  0.8666666666666667 0.1 0  0.9 0.1 0  0.9333333333333333 0.1 0  0.9666666666666667 0.1 0  1 0.1 0  0 0.1333333333333333 0  0.03333333333333333 0.1333333333333333 0  0.06666666666666667 0.1333333333333333 0  0.1 0.1333333333333333 0  0.1333333333333333 0.1333333333333333 0  0.1666666666666667 0.1333333333333333 0  0.2 0.1333333333333333 0  0.2333333333333333 0.1333333333333333 0  0.2666666666666667 0.1333333333333333 0  0.3 0.1333333333333333 0  0.3333333333333333 0.1333333333333333 0  0.3666666666666666 0.1333333333333333 0  0.4 0.1333333333333333 0  0.4333333333333333 0.1333333333333333 0  0.4666666666666667 0.1333333333333333 0  0.5 0.1333333333333333 0  0.5333333333333333 0.1333333333333333 0  0.5666666666666667 0.1333333333333333 0  0.6 0.1333333333333333 0  0.6333333333333333 0.1333333333333333 0  0.6666666666666666 0.1333333333333333 0  0.7 0.1333333333333333 0  0.7333333333333333 0.1333333333333333 0  0.7666666666666667 0.1333333333333333 0  0.8 0.1333333333333333 0  0.8333333333333334 0.1333333333333333 0  0.8666666666666667 0.1333333333333333 0  0.9 0.1333333333333333 0  0.9333333333333333 0.1333333333333333 0  0.9666666666666667 0.1333333333333333 0  1 0.1333333333333333 0  0 0.1666666666666667 0  0.03333333333333333 0.1666666666666667 0  0.06666666666666667 0.1666666666666667 0  0.1 0.1666666666666667 0  0.1333333333333333 0.1666666666666667 0  0.1666666666666667 0.1666666666666667 0  0.2 0.1666666666666667 0  0.2333333333333333 0.1666666666666667 0  0.2666666666666667 0.1666666666666667 0  0.3 0.1666666666666667 0  0.3333333333333333 0.1666666666666667 0  0.3666666666666666 0.1666666666666667 0  0.4 0.1666666666666667 0  0.4333333333333333 0.1666666666666667 0  0.4666666666666667 0.1666666666666667 0  0.5 0.1666666666666667 0  0.5333333333333333 0.1666666666666667 0  0.5666666666666667 0.1666666666666667 0  0.6 0.1666666666666667 0  0.6333333333333333 0.1666666666666667 0  0.6666666666666666 0.1666666666666667 0  0.7 0.1666666666666667 0  0.7333333333333333 0.1666666666666667 0  0.7666666666666667 0.1666666666666667 0  0.8 0.1666666666666667 0  0.8333333333333334 0.1666666666666667 0  0.8666666666666667 0.1666666666666667 0  0.9 0.1666666666666667 0  0.9333333333333333 0.1666666666666667 0  0.9666666666666667 0.1666666666666667 0  1 0.1666666666666667 0  0 0.2 0  0.03333333333333333 0.2 0  0.06666666666666667 0.2 0  0.1 0.2 0  0.1333333333333333 0.2 0  0.1666666666666667 0.2 0  0.2 0.2 0  0.2333333333333333 0.2 0  0.2666666666666667 0.2 0  0.3 0.2 0  0.3333333333333333 0.2 0  0.3666666666666666 0.2 0  0.4 0.2 0  0.4333333333333333 0.2 0  0.4666666666666667 0.2 0  0.5 0.2 0  0.5333333333333333 0.2 0  0.5666666666666667 0.2 0  0.6 0.2 0  0.6333333333333333 0.2 0  0.6666666666666666 0.2 0  0.7 0.2 0  0.7333333333333333 0.2 0  0.7666666666666667 0.2 0  0.8 0.2 0  0.8333333333333334 0.2 0  0.8666666666666667 0.2 0  0.9 0.2 0  0.9333333333333333 0.2 0  0.9666666666666667 0.2 0  1 0.2 0  0 0.2333333333333333 0  0.03333333333333333 0.2333333333333333 0  0.06666666666666667 0.2333333333333333 0  0.1 0.2333333333333333 0  0.1333333333333333 0.2333333333333333 0  0.1666666666666667 0.2333333333333333 0  0.2 0.2333333333333333 0  0.2333333333333333 0.2333333333333333 0  0.2666666666666667 0.2333333333333333 0  0.3 0.2333333333333333 0  0.3333333333333333 0.2333333333333333 0  0.3666666666666666 0.2333333333333333 0  0.4 0.2333333333333333 0  0.4333333333333333 0.2333333333333333 0  0.4666666666666667 0.2333333333333333 0  0.5 0.2333333333333333 0  0.5333333333333333 0.2333333333333333 0  0.5666666666666667 0.2333333333333333 0  0.6 0.2333333333333333 0  0.6333333333333333 0.2333333333333333 0  0.6666666666666666 0.2333333333333333 0  0.7 0.2333333333333333 0  0.7333333333333333 0.2333333333333333 0  0.7666666666666667 0.2333333333333333 0  0.8 0.2333333333333333 0  0.8333333333333334 0.2333333333333333 0  0.8666666666666667 0.2333333333333333 0  0.9 0.2333333333333333 0  0.9333333333333333 0.2333333333333333 0  0.9666666666666667 0.2333333333333333 0  1 0.2333333333333333 0  0 0.2666666666666667 0  0.03333333333333333 0.2666666666666667 0  0.06666666666666667 0.2666666666666667 0  0.1 0.2666666666666667 0  0.1333333333333333 0.2666666666666667 0  0.1666666666666667 0.2666666666666667 0  0.2 0.2666666666666667 0  0.2333333333333333 0.2666666666666667 0  0.2666666666666667 0.2666666666666667 0  0.3 0.2666666666666667 0  0.3333333333333333 0.2666666666666667 0  0.3666666666666666 0.2666666666666667 0  0.4 0.2666666666666667 0  0.4333333333333333 0.2666666666666667 0  0.4666666666666667 0.2666666666666667 0  0.5 0.2666666666666667 0  0.5333333333333333 0.2666666666666667 0  0.5666666666666667 0.2666666666666667 0  0.6 0.2666666666666667 0  0.6333333333333333 0.2666666666666667 0  0.6666666666666666 0.2666666666666667 0  0.7 0.2666666666666667 0  0.7333333333333333 0.2666666666666667 0  0.7666666666666667 0.2666666666666667 0  0.8 0.2666666666666667 0  0.8333333333333334 0.2666666666666667 0  0.8666666666666667 0.2666666666666667 0  0.9 0.2666666666666667 0  0.9333333333333333 0.2666666666666667 0  0.9666666666666667 0.2666666666666667 0  1 0.2666666666666667 0  0 0.3 0  0.03333333333333333 0.3 0  0.06666666666666667 0.3 0  0.1 0.3 0  0.1333333333333333 0.3 0  0.1666666666666667 0.3 0  0.2 0.3 0  0.2333333333333333 0.3 0  0.2666666666666667 0.3 0  0.3 0.3 0  0.3333333333333333 0.3 0  0.3666666666666666 0.3 0  0.4 0.3 0  0.4333333333333333 0.3 0  0.4666666666666667 0.3 0  0.5 0.3 0  0.5333333333333333 0.3 0  0.5666666666666667 0.3 0  0.6 0.3 0  0.6333333333333333 0.3 0  0.6666666666666666 0.3 0  0.7 0.3 0  0.7333333333333333 0.3 0  0.7666666666666667 0.3 0  0.8 0.3 0  0.8333333333333334 0.3 0  0.8666666666666667 0.3 0  0.9 0.3 0  0.9333333333333333 0.3 0  0.9666666666666667 0.3 0  1 0.3 0  0 0.3333333333333333 0  0.03333333333333333 0.3333333333333333 0  0.06666666666666667 0.3333333333333333 0  0.1 0.3333333333333333 0  0.1333333333333333 0.3333333333333333 0  0.1666666666666667 0.3333333333333333 0  0.2 0.3333333333333333 0  0.2333333333333333 0.3333333333333333 0  0.2666666666666667 0.3333333333333333 0  0.3 0.3333333333333333 0  0.3333333333333333 0.3333333333333333 0  0.3666666666666666 0.3333333333333333 0  0.4 0.3333333333333333 0  0.4333333333333333 0.3333333333333333 0  0.4666666666666667 0.3333333333333333 0  0.5 0.3333333333333333 0  0.5333333333333333 0.33333333333333
[...]
<PointData  Scalars="f_18-2"> 
<DataArray  type="Float64"  Name="f_18-2"  format="ascii">1.1961786748257588e-01  1.1961786748341659e-01  1.1961786754429006e-01  1.1961786768958375e-01  1.1961786771679694e-01  1.1961786730359794e-01  1.1961786657321737e-01  1.1961786645954756e-01  1.1961786787144923e-01  1.1961787012843392e-01  1.1961787079133322e-01  1.1961786782979954e-01  1.1961786195184047e-01  1.1961785630884723e-01  1.1961785384142030e-01  1.1961785513366120e-01  1.1961785862271333e-01  1.1961786228866443e-01  1.1961786495772039e-01  1.1961786646289611e-01  1.1961786714916332e-01  1.1961786740740420e-01  1.1961786748843975e-01  1.1961786750973699e-01  1.1961786751442480e-01  1.1961786751528584e-01  1.1961786751541685e-01  1.1961786751543318e-01  1.1961786751543479e-01  1.1961786751543496e-01  1.1961786751543496e-01  1.1961786747266759e-01  1.1961786753293654e-01  1.1961786766434081e-01  1.1961786770481697e-01  1.1961786725558661e-01  1.1961786631404155e-01  1.1961786613174683e-01  1.1961786851431244e-01  1.1961787279708321e-01  1.1961787364922349e-01  1.1961786416831895e-01  1.1961784304912156e-01  1.1961781816943222e-01  1.1961780158070540e-01  1.1961780045328547e-01  1.1961781276526827e-01  1.1961783066017913e-01  1.1961784673744240e-01  1.1961785760926724e-01  1.1961786349758165e-01  1.1961786612463624e-01  1.1961786710418500e-01  1.1961786741169059e-01  1.1961786749318538e-01  1.1961786751140227e-01  1.1961786751482269e-01  1.1961786751535805e-01  1.1961786751542711e-01  1.1961786751543431e-01  1.1961786751543492e-01  1.1961786751543495e-01  1.1961786757486809e-01  1.1961786772186424e-01  1.1961786778698992e-01  1.1961786698695723e-01  1.1961786509983623e-01  1.1961786475926776e-01  1.1961787110587481e-01  1.1961788342800743e-01  1.1961788311935254e-01  1.1961783578533729e-01  1.1961771852504596e-01  1.1961755224640622e-01  1.1961740160963898e-01  1.1961733375263024e-01  1.1961737192306572e-01  1.1961748559367942e-01  1.1961761965447670e-01  1.1961773074853092e-01  1.1961780293323539e-01  1.1961784130616512e-01  1.1961785835220835e-01  1.1961786475368855e-01  1.1961786679861650e-01  1.1961786735566216e-01  1.1961786748499756e-01  1.1961786751051326e-01  1.1961786751476587e-01  1.1961786751535945e-01  1.1961786751542798e-01  1.1961786751543445e-01  1.1961786751543491e-01  1.1961786798277994e-01  1.1961786787395211e-01  1.1961786674646296e-01  1.1961786369640087e-01  1.1961786293896007e-01  1.1961787581389201e-01  1.1961790349771893e-01  1.1961789405134735e-01  1.1961771458406330e-01  1.1961721064343363e-01  1.1961635674172265e-01  1.1961536892367679e-01  1.1961462985213062e-01  1.1961444892941922e-01  1.1961486114153760e-01  1.1961563509858943e-01  1.1961645468424528e-01  1.1961710034813963e-01  1.1961750836276493e-01  1.1961772207093026e-01  1.1961781647068165e-01  1.1961785198436924e-01  1.1961786342346736e-01  1.1961786658453386e-01  1.1961786733343459e-01  1.1961786748506353e-01  1.1961786751114976e-01  1.1961786751493030e-01  1.1961786751538615e-01  1.1961786751543134e-01  1.1961786751543452e-01  1.1961786818471287e-01  1.1961786671746050e-01  1.1961786272962298e-01  1.1961786131028457e-01  1.1961788160123009e-01  1.1961793032031916e-01  1.1961789326120724e-01  1.1961737998367969e-01  1.1961573034892514e-01  1.1961241396238756e-01  1.1960768481613034e-01  1.1960287610875717e-01  1.1959982883253521e-01  1.1959975814495234e-01  1.1960249853564449e-01  1.1960674089492725e-01  1.1961094975742959e-01  1.1961415465443936e-01  1.1961614030051383e-01  1.1961716905918895e-01  1.1961762158604326e-01  1.1961779209478779e-01  1.1961784739372523e-01  1.1961786285824652e-01  1.1961786658456842e-01  1.1961786735581342e-01  1.1961786749216481e-01  1.1961786751258596e-01  1.1961786751514662e-01  1.1961786751541215e-01  1.1961786751543196e-01  1.1961786598008134e-01  1.1961786271685777e-01  1.1961786065357916e-01  1.1961788571384735e-01  1.1961795410922833e-01  1.1961787185639899e-01  1.1961677349275840e-01  1.1961269353261147e-01  1.1960299561640721e-01  1.1958626671564074e-01  1.1956473380374484e-01  1.1954475554978829e-01  1.1953389619961437e-01  1.1953633256904629e-01  1.1955034394106168e-01  1.1956986124400903e-01  1.1958841376424403e-01  1.1960220341674896e-01  1.1961061975539583e-01  1.1961494159457314e-01  1.1961683519065444e-01  1.1961754908435326e-01  1.1961778174052894e-01  1.1961784739452577e-01  1.1961786342373790e-01  1.1961786679884244e-01  1.1961786740832540e-01  1.1961786750193731e-01  1.1961786751402410e-01  1.1961786751531829e-01  1.1961786751541915e-01  1.1961785989457144e-01  1.1961786085958925e-01  1.1961788567718945e-01  1.1961796364525822e-01  1.1961784661467169e-01  1.1961610012385482e-01  1.1960852913297518e-01  1.1958727987618922e-01  1.1954338654206542e-01  1.1947408109326033e-01  1.1939064043210178e-01  1.1931826811510524e-01  1.1928413059627824e-01  1.1930104156858737e-01  1.1935993079337341e-01  1.1943689595668579e-01  1.1950797259697955e-01  1.1955987521654603e-01  1.1959117458795998e-01  1.1960711874106977e-01  1.1961407364493092e-01  1.1961669321587261e-01  1.1961754911833422e-01  1.1961779210491794e-01  1.1961785198643879e-01  1.1961786475378851e-01  1.1961786709523106e-01  1.1961786746142014e-01  1.1961786750966981e-01  1.1961786751494481e-01  1.1961786751536778e-01  1.1961785842307562e-01  1.1961788062303622e-01  1.1961795396940939e-01  1.1961784659476847e-01  1.1961579508428039e-01  1.1960531414072129e-01  1.1957060356239985e-01  1.1948528147295044e-01  1.1932265587040143e-01  1.1907982208965188e-01  1.1880039101384374e-01  1.1856966796930148e-01  1.1847357249613340e-01  1.1854765106624622e-01  1.1875650024391163e-01  1.1901911592139988e-01  1.1925714233784733e-01  1.1942878988822730e-01  1.1953130367132681e-01  1.1958313438040220e-01  1.1960562548866885e-01  1.1961407452419925e-01  1.1961683552044393e-01  1.1961762166371530e-01  1.1961781648442993e-01  1.1961785835222909e-01  1.1961786610615130e-01  1.1961786733230773e-01  1.1961786749571050e-01  1.1961786751374147e-01  1.1961786751520591e-01  1.1961788430137268e-01  1.1961793015056713e-01  1.1961787163188756e-01  1.1961610002543976e-01  1.1960531407642297e-01  1.1956319918508089e-01  1.1944064494795625e-01  1.1916148744704379e-01  1.1865562853569353e-01  1.1792805215127999e-01  1.1711706142919842e-01  1.1647069269290466e-01  1.1622665704701496e-01  1.1647428050030946e-01  1.1710375512059162e-01  1.1787948255143137e-01  1.1857600485397152e-01  1.1907471010906075e-01  1.1937050201774833e-01  1.1951905778089630e-01  1.1958314956329318e-01  1.1960712564888998e-01  1.1961494360110839e-01  1.1961716949640193e-01  1.1961772214544254e-01  1.1961784131043268e-01  1.1961786347124284e-01  1.1961786698923008e-01  1.1961786745897597e-01  1.1961786751063792e-01  1.1961786751481454e-01  1.1961793998420722e-01  1.1961789562386507e-01  1.1961677314492657e-01  1.1960852888047356e-01  1.1957060357785239e-01  1.1944064518622823e-01  1.1908976991660263e-01  1.1832821184038810e-01  1.1699539599621805e-01  1.1513176947811674e-01  1.1310630151879462e-01  1.1153368824914615e-01  1.1097729571894359e-01  1.1163690925919398e-01  1.1324040025323867e-01  1.1520935838714641e-01  1.1697933908514499e-01  1.1824652547765731e-01  1.1899605889563070e-01  1.1937068544822044e-01  1.1953140276815523e-01  1.1959120905234305e-01  1.1961062887333203e-01  1.1961614222059674e-01  1.1961750868738068e-01  1.1961780296557172e-01  1.1961785759702798e-01  1.1961786623690798e-01  1.1961786738087392e-01  1.1961786750441056e-01  1.1961786751413660e-01  1.1961792174979979e-01  1.1961737918908609e-01  1.1961269203597533e-01  1.1958727950312059e-01  1.1948528195564567e-01  1.1916148555712482e-01  1.1832819759523162e-01  1.1657975369774384e-01  1.1360400048060389e-01  1.0955111827791826e-01  1.0525669738079485e-01  1.0199821060753016e-01  1.0088207312323515e-01  1.0228935786901398e-01  1.0569413802375242e-01  1.0993187714490886e-01  1.1379636563821567e-01  1.1658987788079661e-01  1.1824810065182413e-01  1.1907571624745202e-01  1.1942920273773920e-01  1.1956000470881556e-01  1.1960223611496734e-01  1.1961416141184616e-01  1.1961710148823763e-01  1.1961773088791836e-01  1.1961784679814519e-01  1.1961786490329204e-01  1.1961786725113974e-01  1.1961786749534001e-01  1.1961786751347998e-01  1.1961756399555568e-01  1.1961570011456377e-01  1.1960298934838386e-01  1.1954338588831710e-01  1.1932265433173615e-01  1.1865560164741927e-01  1.1699527107468723e-01  1.1360373569574410e-01  1.0798376085363842e-01  1.0055400799779521e-01  9.2924230165503385e-02  8.7285588094045533e-02  8.5373363329632010e-02  8.7769483359646822e-02  9.3711210014493784e-02  1.0134130687565181e-01  1.0850991983240345e-01  1.1380574716999280e-01  1.1698656420515464e-01  1.1857952081177310e-01  1.1925843989661596e-01  1.1950835843052447e-01  1.1958850846785521e-01  1.1961096905958020e-01  1.1961645792642693e-01  1.1961762008284384e-01  1.1961783088495104e-01  1.1961786307256109e-01  1.1961786709586415e-01  1.1961786748779217e-01  1.1961786751379318e-01  1.1961655788566486e-01  1.1961230310079030e-01  1.1958624893204083e-01  1.1947407826475366e-01  1.1907980424667758e-01  1.1792792034248566e-01  1.1513123727421171e-01  1.0954980619578709e-01  1.0055223433443736e-01  8.9063774812959129e-02  7.7722421743686640e-02  6.9620935897672487e-02  6.6880335421870205e-02  7.0166277677150737e-02  7.8679660782208033e-02  9.0131845972042920e-02  1.0137737445534165e-01  1.0996701135061600e-01  1.1523030800648902e-01  1.1788871762248385e-01  1.1902234863203776e-01  1.1943782666577761e-01  1.1957008501153650e-01  1.1960678587223089e-01  1.1961564257148063e-01  1.1961748659707361e-01  1.1961781322506963e-01  1.1961786133169741e-01  1.1961786699725473e-01  1.1961786749044141e-01  1.1961786751618622e-01  1.1961485218551732e-01  1.1960743836183156e-01  1.1956469748120239e-01  1.1939062990473649e-01  1.1880032274564467e-01  1.1711666594624759e-01  1.1310481414523163e-01  1.0525291655450573e-01  9.2917894413285851e-02  7.7716328131527485e-02  6.3339170815850637e-02  5.3465298897291583e-02  5.0142370144553437e-02  5.3912913646714355e-02  6.4187505485421528e-02  7.8761623672355202e-02  9.3817986043765692e-02  1.0577676326817191e-01  1.1328581259239309e-01  1.1712291616965180e-01  1.1876301136000399e-01  1.1936176380407554e-01  1.1955077662785325e-01  1.1960258400253732e-01  1.1961487504673091e-01  1.1961737374586506e-01  1.1961780111014979e-01  1.1961786068824874e-01  1.1961786706060749e-01  1.1961786750972317e-01  1.1961786752023811e-01  1.1961287831318637e-01  1.1960247633091389e-01  1.1954469904577993e-01  1.1931824168258165e-01  1.1856950379988535e-01  1.1646984511238349e-01  1.1153061996992400e-01  1.0199031749092559e-01  8.7271355670842987e-02  6.9603478575708949e-02  5.3452241661270071e-02  4.2724109495905375e-02  3.9136604213919658e-02  4.3008289471630747e-02  5.4022573490547260e-02  7.0357805391808692e-02  8.7970573003902805e-02  1.0243512670766187e-01  1.1171458637529239e-01  1.1650634582139151e-01  1.1855833903468889e-01  1.1930399487139862e-01  1.1953701601635450e-01  1.1959988987022804e-01  1.1961446959414171e-01  1.1961733629295040e-01  1.1961780224063469e-01  1.1961786191807391e-01  1.1961786731664610e-01  1.1961786753883261e-01  1.1961786752259997e-01  1.1961140081245515e-01  1.1959932284926099e-01  1.1953382708351663e-01  1.1928408277315006e-01  1.1847328552672423e-01  1.1622526412787232e-01  1.1097232966696378e-01  1.0086905251081958e-01  8.5348567295861516e-02  6.6846244833186838e-02  5.0108342553648814e-02  3.9113646899021623e-02  3.5422128176441081e-02  3.9238764705307121e-02  5.0359341111161866e-02  6.7179446218057270e-02  8.5665107743952057e-02  1.0108719244631020e-01  1.1108467019651434e-01  1.1627031219637254e-01  1.1848788957125304e-01  1.1928801159645901e-01  1.1953477217045175e-01  1.1959999157652702e-01  1.1961465384955899e-01  1.1961740420466642e-01  1.1961781856760938e-01  1.1961786472515712e-01  1.1961786764203854e-01  1.1961786755588494e-01  1.1961786751904911e-01  1.1961103814926320e-01  1.1959924240056015e-01  1.1953626512276087e-01  1.1930097566578371e-01  1.1854726360914955e-01  1.1647246062579976e-01  1.1163040955844512e-01  1.0227175721129864e-01  8.7733742055550956e-02  7.0111796028162032e-02  5.3848836430677408e-02  4.2948269765838529e-02  3.9198039468589893e-02  4.2914336320137428e-02  5.3770668408394673e-02  6.9996946672976970e-02  8.7631743204845569e-02  1.0223391176521489e-01  1.1165461827090799e-01  1.1651906417240723e-01  1.1858525354293302e-01  1.1932239531571401e-01  1.1954565513702813e-01  1.1960303384431205e-01  1.1961538974799668e-01  1.1961755393504259e-01  1.1961784304713859e-01  1.1961786764558320e-01  1.1961786782180614e-01  1.1961786754212962e-01  1.1961786751001352e-01  1.1961186068162828e-01  1.1960206855712840e-01  1.1955029147888120e-01  1.1935985939255865e-01  1.1875608437546094e-01  1.1710183355896314e-01  1.1323345425325905e-01  1.0567454266652047e-01  9.3668419452787685e-02  7.8607143932696924e-02  6.4089635644679510e-02  5.3913287092030769e-02  5.0258478850317145e-02  5.3705438025525798e-02  6.3690725689456329e-02  7.8115339327057415e-02  9.3263165181566215e-02  1.0547814384065717e-01  1.1321695504981623e-01  1.1716042841286496e-01  1.1881405677421736e-01  1.1939414550984964e-01  1.1956545840989664e-01  1.1960779993614043e-01  1.1961636881368667e-01  1.1961771877162421e-01  1.1961786388774348e-01  1.1961786912047695e-01  1.1961786774285482e-01  1.1961786750569417e-01  1.1961786750295811e-01  1.1961340644269984e-01  1.1960644616032234e-01  1.1956982942493137e-01  1.1943683411838633e-01  1.1901875623436081e-01  1.1787783354367903e-01  1.1520330656364518e-01  1.0991409902518350e-01  1.0129971524650666e-01  9.0054213972147371e-02  7.8644037326495650e-02  7.0209537329266436e-02  6.7022724345107240e-02  6.9865200326670610e-02  7.8043436002889433e-02  8.9398268565870673e-02  1.0082372178681247e-01  1.0971940810462134e-01  1.1521329789916188e-01  1.1795920632009829e-01  1.1908934773619635e-01  1.1947641002032193e-01  1.1958670741228153e-01  1.1961247149813470e-01  1.1961721335386710e-01  1.1961783497074445e-01  1.1961787337490599e-01  1.1961786880601498e-01  1.1961786751551257e-01  1.1961786747896164e-01  1.1961786750561218e-01  1.1961504387475672e-01  1.1961078443049726e-01  1.1958839974934087e-01  1.1950792938378564e-01  1.1925688981914338e-01  1.1857485199982840e-01  1.1697505286199485e-01  1.1378335870840808e-01  1.0847778826017623e-01  1.0131272695558005e-01  9.3711183080501428e-02  8.7823928606155108e-02  8.5497488587593318e-02  8.7476488659624110e-02  9.3155181760546865e-02  1.0077765888564190e-01  1.0815490153572413e-01  1.1370616504336396e-01  1.1704327673879351e-01  1.1867334885633848e-01  1.1932783650805991e-01  1.1954455543770197e-01  1.1960318163151883e-01  1.1961574378255567e-01  1.1961771207818139e-01  1.1961788217495804e-01  1.1961787272426255e-01  1.1961786770475442e-01  1.1961786735968742e-01  1.1961786748490802e-01  1.1961786751620845e-01  1.1961633411020987e-01  1.1961408027800577e-01  1.1960220009684533e-01  1.1955985065958320e-01  1.1942864506561593e-01  1.1907405072930421e-01  1.1824405220308216e-01  1.1658220682964218e-01  1.1378609383916281e-01  1.0992544278443281e-01  1.0570402224097709e-01  1.0232952492755332e-01  1.0096049888284035e-01  1.0211066199779206e-01  1.0538480191574420e-01  1.0966835539312210e-01  1.1368945203065012e-01  1.1662890870415206e-01  1.1835041894329397e-01  1.1916934246955030e-01  1.1948741055628782e-01  1.1958768995665321e-01  1.1961273348141897e-01  1.1961737460360398e-01  1.1961789112781941e-01  1.1961788299400972e-01  1.1961786861113578e-01  1.1961786701212461e-01  1.1961786737832432e-01  1.1961786751209873e-01  1.1961786752430850e-01  1.1961714958125118e-01  1.1961611497973446e-01  1.1961062063588479e-01  1.1959116312693606e-01  1.1953123531794881e-01  1.1937019121943639e-01  1.1899488647523480e-01  1.1824441660998987e-01  1.1697692250221040e-01  1.1520931452006403e-01  1.1324782558796444e-01  1.1165759825470253e-01  1.1101429578225842e-01  1.1158420558815164e-01  1.1316137546020999e-01  1.1518003864263456e-01  1.1702916122865391e-01  1.1834686404276942e-01  1.1909780508497345e-01  1.1944328000405743e-01  1.1957121734287222e-01  1.1960860514109228e-01  1.1961676509368116e-01  1.1961788685135109e-01  1.1961790227432026e-01  1.1961787115950577e-01  1.1961786624671848e-01  1.1961786706047378e-01  1.1961786748778624e-01  1.1961786753106768e-01  1.1961786752293800e-01  1.1961757675745724e-01  1.1961716382303451e-01  1.1961494305152573e-01  1.1960711428433635e-01  1.1958310762907952e-01  1.1951893601901242e-01  1.1937022381220862e-01  1.1907425388299757e-01  1.1857564862547658e-01  1.1788015806558738e-01  1.1710716096947391e-01  1.1648230999741917e-01  1.1624017900470399e-01  1.1648845623043394e-01  1.1713574558431006e-01  1.1794382075217583e-01  1.1866620539131961e-01  1.1916703150173154e-01  1.1944284997615887e-01  1.1956381936706215e-01  1.1960540817555798e-01  1.1961608989215923e-01  1.1961786170362325e-01  1.1961792795833567e-01  1.1961787587970110e-01  1.1961786495163237e-01  1.1961786635667218e-01  1.1961786740985925e-01  1.1961786755796948e-01  1.1961786752892443e-01  1.1961786751605989e-01  1.1961776546737782e-01  1.1961762203129103e-01  1.1961683608083729e-01  1.1961407216844733e-01  1.1960561675611407e-01  1.1958310963395360e-01  1.1953125031154198e-01  1.1942871638753493e-01  1.1925714262563838e-01  1.1901945877428514e-01  1.1875765167615684e-01  1.1855010860273997e-01  1.1847751835960749e-01  1.1857467126464048e-01  1.1880546863185265e-01  1.1908392925700055e-01  1.1932525939653935e-01  1.1948653241435171e-01  1.1957102579925739e-01  1.1960538974851671e-01  1.1961578467177650e-01  1.1961783488078251e-01  1.1961795090054614e-01  1.1961788167749335e-01  1.1961786328346091e-01  1.1961786520406177e-01  1.1961786724239490e-01  1.1961786760911650e-01  1.1961786755330650e-01  1.1961786751727956e-01  1.1961786751189205e-01  1.1961783646507738e-01  1.1961779312852233e-01  1.1961754944011387e-01  1.1961669278472792e-01  1.1961407214106880e-01  1.1960711465107707e-01  1.1959116658284717e-01  1.1955986802692842e-01  1.1950799140136395e-01  1.1943700517039031e-01  1.1936023627292815e-01  1.1930164922774798e-01  1.1928506489513030e-01  1.1931940791520759e-01  1.1939174645899304e-01  1.1947492252472142e-01  1.1954387091573936e-01  1.1958747375745496e-01  1.1960856822314793e-01  1.1961609129532191e-01  1.1961783668966183e-01  1.1961796056203412e-01  1.1961788582084243e-01  1.1961786176844970e-01  1.1961786386026876e-01  1.1961786699502283e-01  1.1961786768473803e-01  1.1961786759776537e-01  1.1961786752184826e-01  1.1961786751108530e-01  1.1961786751287994e-01  1.1961785933445485e-01  1.1961784797257101e-01  1.1961778183497040e-01  1.1961754900263771e-01  1.1961683497864427e-01  1.1961494106069409e-01  1.1961061889199093e-01  1.1960220359215906e-01  1.1958842042718473e-01  1.1956988718246971e-01  1.1955040896659924e-01  1.1953645465029303e-01  1.1953407548554197e-01  1.1954496356643246e-01  1.1956492235633216e-01  1.1958639538437116e-01  1.1960305560202300e-01  1.1961270611472208e-01  1.1961676776461752e-01  1.1961786575001100e-01  1.1961795202153851e-01  1.1961788586401734e-01  1.1961786110292226e-01  1.1961786290587184e-01  1.1961786675602745e-01  1.1961786776821687e-01  1.1961786765807385e-01  1.1961786752933694e-01  1.1961786750679551e-01  1.1961786751245557e-01  1.1961786751542654e-01  1.1961786565426777e-01  1.1961786308071666e-01  1.1961784740558204e-01  1.1961779207570325e-01  1.1961762156248559e-01  1.1961716900771975e-01  1.1961614025264405e-01  1.1961415489231041e-01  1.1961095123380068e-01  1.1960674568587798e-01  1.1960250963168922e-01  1.1959977783370815e-01  1.1959985611283094e-01  1.1960290539174810e-01  1.1960770822094194e-01  1.1961242634114952e-01  1.1961573260383115e-01  1.1961737733417259e-01  1.1961789056883715e-01  1.1961792934092991e-01  1.1961788175732679e-01  1.1961786165313980e-01  1.1961786287286939e-01  1.1961786665196