<?xml version="1.0"?>
<VTKFile type="UnstructuredGrid"  version="0.1"  >
<UnstructuredGrid>
<Piece  NumberOfPoints="961" NumberOfCells="1800">
<Points>
<DataArray  type="Float64"  NumberOfComponents="3"  format="ascii">0 0 0  0.03333333333333333 0 0  0.06666666666666667 0 0  0.1 0 0  0.1333333333333333 0 0  0.1666666666666667 0 0  0.2 0 0  0.2333333333333333 0 0  0.2666666666666667 0 0  0.3 0 0  0.3333333333333333 0 0  0.3666666666666666 0 0  0.4 0 0  0.4333333333333333 0 0  0.4666666666666667 0 0  0.5 0 0  0.5333333333333333 0 0  0.5666666666666667 0 0  0.6 0 0  0.6333333333333333 0 0  0.6666666666666666 0 0  0.7 0 0  0.7333333333333333 0 0  0.7666666666666667 0 0  0.8 0 0  0.8333333333333334 0 0  0.8666666666666667 0 0  0.9 0 0  0.9333333333333333 0 0  0.9666666666666667 0 0  1 0 0  0 0.03333333333333333 0  0.03333333333333333 0.03333333333333333 0  0.06666666666666667 0.03333333333333333 0  0.1 0.03333333333333333 0  0.1333333333333333 0.03333333333333333 0  0.1666666666666667 0.03333333333333333 0  0.2 0.03333333333333333 0  0.2333333333333333 0.03333333333333333 0  0.2666666666666667 0.03333333333333333 0  0.3 0.03333333333333333 0  0.3333333333333333 0.03333333333333333 0  0.3666666666666666 0.03333333333333333 0  0.4 0.03333333333333333 0  0.4333333333333333 0.03333333333333333 0  0.4666666666666667 0.03333333333333333 0  0.5 0.03333333333333333 0  0.5333333333333333 0.03333333333333333 0  0.5666666666666667 0.03333333333333333 0  0.6 0.03333333333333333 0  0.6333333333333333 0.03333333333333333 0  0.6666666666666666 0.03333333333333333 0  0.7 0.03333333333333333 0  0.7333333333333333 0.03333333333333333 0  0.7666666666666667 0.03333333333333333 0  0.8 0.03333333333333333 0  0.8333333333333334 0.03333333333333333 0  0.8666666666666667 0.03333333333333333 0  0.9 0.03333333333333333 0  0.9333333333333333 0.03333333333333333 0  0.9666666666666667 0.03333333333333333 0  1 0.03333333333333333 0  0 0.06666666666666667 0  0.03333333333333333 0.06666666666666667 0  0.06666666666666667 0.06666666666666667 0  0.1 0.06666666666666667 0  0.1333333333333333 0.06666666666666667 0  0.1666666666666667 0.06666666666666667 0  0.2 0.06666666666666667 0  0.2333333333333333 0.06666666666666667 0  0.2666666666666667 0.06666666666666667 0  0.3 0.06666666666666667 0  0.3333333333333333 0.06666666666666667 0  0.3666666666666666 0.06666666666666667 0  0.4 0.06666666666666667 0  0.4333333333333333 0.06666666666666667 0  0.4666666666666667 0.06666666666666667 0  0.5 0.06666666666666667 0  0.5333333333333333 0.06666666666666667 0  0.5666666666666667 0.06666666666666667 0  0.6 0.06666666666666667 0  0.6333333333333333 0.06666666666666667 0  0.6666666666666666 0.06666666666666667 0  0.7 0.06666666666666667 0  0.7333333333333333 0.06666666666666667 0  0.7666666666666667 0.06666666666666667 0  0.8 0.06666666666666667 0  0.8333333333333334 0.06666666666666667 0  0.8666666666666667 0.06666666666666667 0  0.9 0.06666666666666667 0  0.9333333333333333 0.06666666666666667 0  0.9666666666666667 0.06666666666666667 0  1 0.06666666666666667 0  0 0.1 0  0.03333333333333333 0.1 0  0.06666666666666667 0.1 0  0.1 0.1 0  0.1333333333333333 0.1 0  0.1666666666666667 0.1 0  0.2 0.1 0  0.2333333333333333 0.1 0  0.2666666666666667 0.1 0  0.3 0.1 0  0.3333333333333333 0.1 0  0.3666666666666666 0.1 0  0.4 0.1 0  0.4333333333333333 0.1 0  0.4666666666666667 0.1 0  0.5 0.1 0  0.5333333333333333 0.1 0  0.5666666666666667 0.1 0  0.6 0.1 0  0.6333333333333333 0.1 0  0.6666666666666666 0.1 0  0.7 0.1 0  0.7333333333333333 0.1 0  0.7666666666666667 0.1 0  0.8 0.1 0  0.8333333333333334 0.1 0  0.8666666666666667 0.1 0  0.9 0.1 0  0.9333333333333333 0.1 0  0.9666666666666667 0.1 0  1 0.1 0  0 0.1333333333333333 0  0.03333333333333333 0.1333333333333333 0  0.06666666666666667 0.1333333333333333 0  0.1 0.1333333333333333 0  0.1333333333333333 0.1333333333333333 0  0.1666666666666667 0.1333333333333333 0  0.2 0.1333333333333333 0  0.2333333333333333 0.1333333333333333 0  0.2666666666666667 0.1333333333333333 0  0.3 0.1333333333333333 0  0.3333333333333333 0.1333333333333333 0  0.3666666666666666 0.1333333333333333 0  0.4 0.1333333333333333 0  0.4333333333333333 0.1333333333333333 0  0.4666666666666667 0.1333333333333333 0  0.5 0.1333333333333333 0  0.5333333333333333 0.1333333333333333 0  0.5666666666666667 0.1333333333333333 0  0.6 0.1333333333333333 0  0.6333333333333333 0.1333333333333333 0  0.6666666666666666 0.1333333333333333 0  0.7 0.1333333333333333 0  0.7333333333333333 0.1333333333333333 0  0.7666666666666667 0.1333333333333333 0  0.8 0.1333333333333333 0  0.8333333333333334 0.1333333333333333 0  0.8666666666666667 0.1333333333333333 0  0.9 0.1333333333333333 0  0.9333333333333333 0.1333333333333333 0  0.9666666666666667 0.1333333333333333 0  1 0.1333333333333333 0  0 0.1666666666666667 0  0.03333333333333333 0.1666666666666667 0  0.06666666666666667 0.1666666666666667 0  0.1 0.1666666666666667 0  0.1333333333333333 0.1666666666666667 0  0.1666666666666667 0.1666666666666667 0  0.2 0.1666666666666667 0  0.2333333333333333 0.1666666666666667 0  0.2666666666666667 0.1666666666666667 0  0.3 0.1666666666666667 0  0.3333333333333333 0.1666666666666667 0  0.3666666666666666 0.1666666666666667 0  0.4 0.1666666666666667 0  0.4333333333333333 0.1666666666666667 0  0.4666666666666667 0.1666666666666667 0  0.5 0.1666666666666667 0  0.5333333333333333 0.1666666666666667 0  0.5666666666666667 0.1666666666666667 0  0.6 0.1666666666666667 0  0.6333333333333333 0.1666666666666667 0  0.6666666666666666 0.1666666666666667 0  0.7 0.1666666666666667 0  0.7333333333333333 0.1666666666666667 0  0.7666666666666667 0.1666666666666667 0  0.8 0.1666666666666667 0  0.8333333333333334 0.1666666666666667 0  0.8666666666666667 0.1666666666666667 0  0.9 0.1666666666666667 0  0.9333333333333333 0.1666666666666667 0  0.9666666666666667 0.1666666666666667 0  1 0.1666666666666667 0  0 0.2 0  0.03333333333333333 0.2 0  0.06666666666666667 0.2 0  0.1 0.2 0  0.1333333333333333 0.2 0  0.1666666666666667 0.2 0  0.2 0.2 0  0.2333333333333333 0.2 0  0.2666666666666667 0.2 0  0.3 0.2 0  0.3333333333333333 0.2 0  0.3666666666666666 0.2 0  0.4 0.2 0  0.4333333333333333 0.2 0  0.4666666666666667 0.2 0  0.5 0.2 0  0.5333333333333333 0.2 0  0.5666666666666667 0.2 0  0.6 0.2 0  0.6333333333333333 0.2 0  0.6666666666666666 0.2 0  0.7 0.2 0  0.7333333333333333 0.2 0  0.7666666666666667 0.2 0  0.8 0.2 0  0.8333333333333334 0.2 0  0.8666666666666667 0.2 0  0.9 0.2 0  0.9333333333333333 0.2 0  0.9666666666666667 0.2 0  1 0.2 0  0 0.2333333333333333 0  0.03333333333333333 0.2333333333333333 0  0.06666666666666667 0.2333333333333333 0  0.1 0.2333333333333333 0  0.1333333333333333 0.2333333333333333 0  0.1666666666666667 0.2333333333333333 0  0.2 0.2333333333333333 0  0.2333333333333333 0.2333333333333333 0  0.2666666666666667 0.2333333333333333 0  0.3 0.2333333333333333 0  0.3333333333333333 0.2333333333333333 0  0.3666666666666666 0.2333333333333333 0  0.4 0.2333333333333333 0  0.4333333333333333 0.2333333333333333 0  0.4666666666666667 0.2333333333333333 0  0.5 0.2333333333333333 0  0.5333333333333333 0.2333333333333333 0  0.5666666666666667 0.2333333333333333 0  0.6 0.2333333333333333 0  0.6333333333333333 0.2333333333333333 0  0.6666666666666666 0.2333333333333333 0  0.7 0.2333333333333333 0  0.7333333333333333 0.2333333333333333 0  0.7666666666666667 0.2333333333333333 0  0.8 0.2333333333333333 0  0.8333333333333334 0.2333333333333333 0  0.8666666666666667 0.2333333333333333 0  0.9 0.2333333333333333 0  0.9333333333333333 0.2333333333333333 0  0.9666666666666667 0.2333333333333333 0  1 0.2333333333333333 0  0 0.2666666666666667 0  0.03333333333333333 0.2666666666666667 0  0.06666666666666667 0.2666666666666667 0  0.1 0.2666666666666667 0  0.1333333333333333 0.2666666666666667 0  0.1666666666666667 0.2666666666666667 0  0.2 0.2666666666666667 0  0.2333333333333333 0.2666666666666667 0  0.2666666666666667 0.2666666666666667 0  0.3 0.2666666666666667 0  0.3333333333333333 0.2666666666666667 0  0.3666666666666666 0.2666666666666667 0  0.4 0.2666666666666667 0  0.4333333333333333 0.2666666666666667 0  0.4666666666666667 0.2666666666666667 0  0.5 0.2666666666666667 0  0.5333333333333333 0.2666666666666667 0  0.5666666666666667 0.2666666666666667 0  0.6 0.2666666666666667 0  0.6333333333333333 0.2666666666666667 0  0.6666666666666666 0.2666666666666667 0  0.7 0.2666666666666667 0  0.7333333333333333 0.2666666666666667 0  0.7666666666666667 0.2666666666666667 0  0.8 0.2666666666666667 0  0.8333333333333334 0.2666666666666667 0  0.8666666666666667 0.2666666666666667 0  0.9 0.2666666666666667 0  0.9333333333333333 0.2666666666666667 0  0.9666666666666667 0.2666666666666667 0  1 0.2666666666666667 0  0 0.3 0  0.03333333333333333 0.3 0  0.06666666666666667 0.3 0  0.1 0.3 0  0.1333333333333333 0.3 0  0.1666666666666667 0.3 0  0.2 0.3 0  0.2333333333333333 0.3 0  0.2666666666666667 0.3 0  0.3 0.3 0  0.3333333333333333 0.3 0  0.3666666666666666 0.3 0  0.4 0.3 0  0.4333333333333333 0.3 0  0.4666666666666667 0.3 0  0.5 0.3 0  0.5333333333333333 0.3 0  0.5666666666666667 0.3 0  0.6 0.3 0  0.6333333333333333 0.3 0  0.6666666666666666 0.3 0  0.7 0.3 0  0.7333333333333333 0.3 0  0.7666666666666667 0.3 0  0.8 0.3 0  0.8333333333333334 0.3 0  0.8666666666666667 0.3 0  0.9 0.3 0  0.9333333333333333 0.3 0  0.9666666666666667 0.3 0  1 0.3 0  0 0.3333333333333333 0  0.03333333333333333 0.3333333333333333 0  0.06666666666666667 0.3333333333333333 0  0.1 0.3333333333333333 0  0.1333333333333333 0.3333333333333333 0  0.1666666666666667 0.3333333333333333 0  0.2 0.3333333333333333 0  0.2333333333333333 0.3333333333333333 0  0.2666666666666667 0.3333333333333333 0  0.3 0.3333333333333333 0  0.3333333333333333 0.3333333333333333 0  0.3666666666666666 0.3333333333333333 0  0.4 0.3333333333333333 0  0.4333333333333333 0.3333333333333333 0  0.4666666666666667 0.3333333333333333 0  0.5 0.3333333333333333 0  0.5333333333333333 0.33333333333333
[...]
<PointData  Scalars="f_18-2"> 
<DataArray  type="Float64"  Name="f_18-2"  format="ascii">1.2880883451920402e-01  1.2880883446395264e-01  1.2880883373880378e-01  1.2880883168226512e-01  1.2880882959370912e-01  1.2880883185334682e-01  1.2880884318500394e-01  1.2880886127486538e-01  1.2880887078888942e-01  1.2880884821496774e-01  1.2880877895334422e-01  1.2880867388360165e-01  1.2880856880186711e-01  1.2880850418334974e-01  1.2880850101350694e-01  1.2880855143054301e-01  1.2880862857973951e-01  1.2880870455729893e-01  1.2880876275333958e-01  1.2880879957304428e-01  1.2880881935187258e-01  1.2880882850729258e-01  1.2880883218990505e-01  1.2880883348286637e-01  1.2880883387979555e-01  1.2880883398628201e-01  1.2880883401117979e-01  1.2880883401622845e-01  1.2880883401710885e-01  1.2880883401724152e-01  1.2880883401725426e-01  1.2880883457467307e-01  1.2880883390349679e-01  1.2880883212690514e-01  1.2880882999760179e-01  1.2880883200941343e-01  1.2880884504238935e-01  1.2880886915751333e-01  1.2880888386260839e-01  1.2880884480577567e-01  1.2880870563702290e-01  1.2880845808698430e-01  1.2880815774915988e-01  1.2880790580489745e-01  1.2880779343931695e-01  1.2880785049527282e-01  1.2880803613028255e-01  1.2880827213358081e-01  1.2880848790548788e-01  1.2880864653003998e-01  1.2880874437492285e-01  1.2880879609884544e-01  1.2880881981186879e-01  1.2880882930460769e-01  1.2880883263469714e-01  1.2880883365956067e-01  1.2880883393599621e-01  1.2880883400114806e-01  1.2880883401449530e-01  1.2880883401685231e-01  1.2880883401721224e-01  1.2880883401724827e-01  1.2880883341586749e-01  1.2880883144267016e-01  1.2880882838446270e-01  1.2880883201754911e-01  1.2880885649466770e-01  1.2880890590565167e-01  1.2880893597970858e-01  1.2880882013032691e-01  1.2880837420613092e-01  1.2880746999742856e-01  1.2880618038581426e-01  1.2880482858195461e-01  1.2880386035440927e-01  1.2880360597173507e-01  1.2880410415308288e-01  1.2880511119753696e-01  1.2880626554286481e-01  1.2880727206888806e-01  1.2880799328294357e-01  1.2880843224141808e-01  1.2880866319819650e-01  1.2880876933546204e-01  1.2880881220242704e-01  1.2880882747051625e-01  1.2880883227263540e-01  1.2880883360577494e-01  1.2880883393176279e-01  1.2880883400170873e-01  1.2880883401480089e-01  1.2880883401694057e-01  1.2880883401718229e-01  1.2880882823840056e-01  1.2880882672572197e-01  1.2880883178845431e-01  1.2880886912856512e-01  1.2880895422026944e-01  1.2880901104520520e-01  1.2880874578586365e-01  1.2880759266338490e-01  1.2880490419900537e-01  1.2880042016290116e-01  1.2879474028304172e-01  1.2878934904952885e-01  1.2878599571021276e-01  1.2878577725054335e-01  1.2878857522790971e-01  1.2879322738353374e-01  1.2879823394667375e-01  1.2880245829976794e-01  1.2880542602719056e-01  1.2880721076671567e-01  1.2880814379262351e-01  1.2880857176359525e-01  1.2880874497963746e-01  1.2880880703350764e-01  1.2880882673290520e-01  1.2880883227144876e-01  1.2880883364754431e-01  1.2880883394851925e-01  1.2880883400612994e-01  1.2880883401576287e-01  1.2880883401689380e-01  1.2880882035218713e-01  1.2880883020145242e-01  1.2880887750014308e-01  1.2880899723860134e-01  1.2880908789895823e-01  1.2880860961140897e-01  1.2880623555521523e-01  1.2879987477971699e-01  1.2878755199415134e-01  1.2876907080942882e-01  1.2874739795733908e-01  1.2872831667218948e-01  1.2871795161075517e-01  1.2871959363494401e-01  1.2873205318838485e-01  1.2875063126408001e-01  1.2876978700743461e-01  1.2878556126360308e-01  1.2879647090874791e-01  1.2880296529142515e-01  1.2880634013857792e-01  1.2880788445891683e-01  1.2880851007124294e-01  1.2880873509727261e-01  1.2880880703691558e-01  1.2880882746572581e-01  1.2880883260744683e-01  1.2880883375009064e-01  1.2880883397303949e-01  1.2880883401109566e-01  1.2880883401572296e-01  1.2880882965998408e-01  1.2880887605063820e-01  1.2880901425111158e-01  1.2880913719303022e-01  1.2880846200878462e-01  1.2880458849617790e-01  1.2879266360426342e-01  1.2876594842330466e-01  1.2871905037686987e-01  1.2865318941532775e-01  1.2857993432726222e-01  1.2851908275134441e-01  1.2849006926632461e-01  1.2850193790322462e-01  1.2854888131862449e-01  1.2861426073981930e-01  1.2867963704963026e-01  1.2873245699996741e-01  1.2876850540462362e-01  1.2878976383715401e-01  1.2880074303188269e-01  1.2880575103677286e-01  1.2880777901755505e-01  1.2880851013389649e-01  1.2880874500461090e-01  1.2880881218996379e-01  1.2880882926389373e-01  1.2880883310375965e-01  1.2880883386365666e-01  1.2880883399528942e-01  1.2880883401172252e-01  1.2880890428931666e-01  1.2880900162029318e-01  1.2880913744770184e-01  1.2880839632026481e-01  1.2880340853899563e-01  1.2878576163386118e-01  1.2874020154706903e-01  1.2864725433076388e-01  1.2849340383491009e-01  1.2828628944318982e-01  1.2806418592283589e-01  1.2788768662055003e-01  1.2781314648797457e-01  1.2786363735739739e-01  1.2801761685119536e-01  1.2822267192205458e-01  1.2842314627466483e-01  1.2858262132691142e-01  1.2869015922809951e-01  1.2875298300328700e-01  1.2878520533937787e-01  1.2879983815611568e-01  1.2880575205480563e-01  1.2880788494107645e-01  1.2880857190875297e-01  1.2880876932451024e-01  1.2880881981674855e-01  1.2880883126329923e-01  1.2880883354964537e-01  1.2880883394926804e-01  1.2880883400008525e-01  1.2880907456126511e-01  1.2880910970311582e-01  1.2880846492605791e-01  1.2880340878808635e-01  1.2878285327407663e-01  1.2872191055669491e-01  1.2857827404597957e-01  1.2830079469745270e-01  1.2785784913840587e-01  1.2727763536129380e-01  1.2667080635609465e-01  1.2620404308156560e-01  1.2602648943941824e-01  1.2619319471272908e-01  1.2663808329922313e-01  1.2721380717168040e-01  1.2776779235633454e-01  1.2820301446941704e-01  1.2849326997168195e-01  1.2866119815592256e-01  1.2874664373778288e-01  1.2878521775174268e-01  1.2880074980072331e-01  1.2880634258388018e-01  1.2880814446734798e-01  1.2880866327146492e-01  1.2880879638846490e-01  1.2880882668925744e-01  1.2880883276847929e-01  1.2880883383440694e-01  1.2880883397141524e-01  1.2880918840438471e-01  1.2880864756091662e-01  1.2880459450661083e-01  1.2878576256384597e-01  1.2872191121437593e-01  1.2854912013875994e-01  1.2816275907095739e-01  1.2744060537416710e-01  1.2631394276667493e-01  1.2486525808971456e-01  1.2337722677408132e-01  1.2225921482897134e-01  1.2186618551407361e-01  1.2232022197046682e-01  1.2345138333512988e-01  1.2489383201441430e-01  1.2627007205223215e-01  1.2734225282234432e-01  1.2805067048014332e-01  1.2845659874997237e-01  1.2866131452610269e-01  1.2875305494330802e-01  1.2878979352317435e-01  1.2880297494814436e-01  1.2880721333184095e-01  1.2880843272402628e-01  1.2880874558949082e-01  1.2880881681275297e-01  1.2880883109411517e-01  1.2880883359055287e-01  1.2880883391230619e-01  1.2880865833590630e-01  1.2880622688772439e-01  1.2879266197004227e-01  1.2874020210016859e-01  1.2857827447312448e-01  1.2816275235324631e-01  1.2726289347098069e-01  1.2561599401115739e-01  1.2308879789964092e-01  1.1989045182056322e-01  1.1665935900520381e-01  1.1427635920249997e-01  1.1347745857397196e-01  1.1450662783720725e-01  1.1700532762927228e-01  1.2019257314060093e-01  1.2323911202107381e-01  1.2560911343786388e-01  1.2716645828540474e-01  1.2805152917307180e-01  1.2849386500100041e-01  1.2869043543961864e-01  1.2876860720378644e-01  1.2879650221888411e-01  1.2880543415925685e-01  1.2880799508238355e-01  1.2880864996283584e-01  1.2880879844018500e-01  1.2880882803525842e-01  1.2880883315679434e-01  1.2880883381279640e-01  1.2880635315050781e-01  1.2879962866815892e-01  1.2876590290257373e-01  1.2864724688957502e-01  1.2830077976421880e-01  1.2744053271970660e-01  1.2561583264310214e-01  1.2232884102276088e-01  1.1736669229042274e-01  1.1120827427501706e-01  1.0512040640852791e-01  1.0071836059094519e-01  9.9270118855153175e-02  1.0118838619255011e-01  1.0588178844366840e-01  1.1197701003569417e-01  1.1790016317773984e-01  1.2255240663632075e-01  1.2561411428196131e-01  1.2734614244246051e-01  1.2820503057570715e-01  1.2858345215971609e-01  1.2873274447359076e-01  1.2878564651721375e-01  1.2880248005827619e-01  1.2880727713617776e-01  1.2880849555138407e-01  1.2880876943037492e-01  1.2880882336625929e-01  1.2880883252949307e-01  1.2880883368330628e-01  1.2880097831796092e-01  1.2878672213397377e-01  1.2871889080222990e-01  1.2849336509966888e-01  1.2785775960399304e-01  1.2631359879385060e-01  1.2308792731175182e-01  1.1736543155551393e-01  1.0890289141295803e-01  9.8691575960640390e-02  8.8919939674122636e-02  8.2046741597846209e-02  7.9791332551341687e-02  8.2693572660089323e-02  9.0040506802673212e-02  9.9943821003735098e-02  1.0990612648084395e-01  1.1792226059066928e-01  1.2325894940426006e-01  1.2628167913156002e-01  1.2777313075624763e-01  1.2842520366484109e-01  1.2868031967859944e-01  1.2876998397026082e-01  1.2879828339013547e-01  1.2880627711785464e-01  1.2880828618368725e-01  1.2880873161033057e-01  1.2880881764519442e-01  1.2880883184115977e-01  1.2880883357287573e-01  1.2879201340416987e-01  1.2876723870398296e-01  1.2865282553310792e-01  1.2828617313053658e-01  1.2727733568653801e-01  1.2486419885612404e-01  1.1988770105909916e-01  1.1120332507653748e-01  9.8686326814615852e-02  8.4134075596783223e-02  7.0814095370693719e-02  6.1803307085180011e-02  5.8851109373112963e-02  6.2441963130376803e-02  7.2006746979108860e-02  8.5609357777535547e-02  1.0001108446312054e-01  1.1205119927601044e-01  1.2024375870146554e-01  1.2492068877151960e-01  1.2722539242685629e-01  1.2822694702585904e-01  1.2861563573155321e-01  1.2875101891321958e-01  1.2879332299535512e-01  1.2880513318883446e-01  1.2880805775140011e-01  1.2880869328838671e-01  1.2880881255969498e-01  1.2880883138911717e-01  1.2880883356529579e-01  1.2878065698083654e-01  1.2874427568779592e-01  1.2857929757234673e-01  1.2806392994210575e-01  1.2667009375313606e-01  1.2337481229047122e-01  1.1665306534030388e-01  1.0510833322438801e-01  8.8903854156811596e-02  7.0801320388310954e-02  5.5034531827608826e-02  4.4850840647844781e-02  4.1543460560412797e-02  4.5335583949353352e-02  5.6011197757072188e-02  7.2133059190317386e-02  9.0223655336715086e-02  1.0604203597529009e-01  1.1710674240222717e-01  1.2350193376484948e-01  1.2665907084052286e-01  1.2802512806090155e-01  1.2855123727232770e-01  1.2873270323619701e-01  1.2878873234976929e-01  1.2880413915753353e-01  1.2880787835232632e-01  1.2880866835225013e-01  1.2880881053717214e-01  1.2880883152297593e-01  1.2880883373107893e-01  1.2876987639105714e-01  1.2872396423761079e-01  1.2851817656822195e-01  1.2788724196162174e-01  1.2620273140752164e-01  1.2225487199656351e-01  1.1426501454188664e-01  1.0069592018830488e-01  8.2014363267977480e-02  6.1770550916538353e-02  4.4829981863622352e-02  3.4314770107021081e-02  3.0937306389489255e-02  3.4621207789457112e-02  4.5481802446895703e-02  6.2720511276162891e-02  8.3019029150010804e-02  1.0145473641358738e-01  1.1466946527662618e-01  1.2239921138595763e-01  1.2622517919805543e-01  1.2787482026580899e-01  1.2850536928168033e-01  1.2872051982327287e-01  1.2878599565908300e-01  1.2880365251638856e-01  1.2880782309496250e-01  1.2880867008720920e-01  1.2880881340743741e-01  1.2880883239143734e-01  1.2880883405141019e-01  1.2876316879893832e-01  1.2871284734694438e-01  1.2848899130247934e-01  1.2781251495437704e-01  1.2602453763754456e-01  1.2185979076025234e-01  1.1346060547063254e-01  9.9235733624137609e-02  7.9738679794718131e-02  5.8791373410374492e-02  4.1492771163830044e-02  3.0907036843319514e-02  2.7501753936634527e-02  3.1063928190357488e-02  4.1826893497228942e-02  5.9275579794714026e-02  8.0250370241704991e-02  9.9633216519789083e-02  1.1369474437432445e-01  1.2196962606894690e-01  1.2606758968332782e-01  1.2782723720500375e-01  1.2849430250685881e-01  1.2871906649933534e-01  1.2878625033197946e-01  1.2880391143419911e-01  1.2880793103922175e-01  1.2880870227537655e-01  1.2880882084322831e-01  1.2880883372591190e-01  1.2880883438340596e-01  1.2876272829807889e-01  1.2871447775875000e-01  1.2850085060981123e-01  1.2786288951598912e-01  1.2619078946921458e-01  1.2231235495440414e-01  1.1448553712901959e-01  1.0114354455901117e-01  8.2619919384142051e-02  6.2348899022838793e-02  4.5242149210245795e-02  3.4543424688185456e-02  3.1014583434963786e-02  3.4557828679102967e-02  4.5258315015162892e-02  6.2343491987638402e-02  8.2593840082337569e-02  1.0113498662329440e-01  1.1451976820969401e-01  1.2237301262060432e-01  1.2624850262569098e-01  1.2790265105225063e-01  1.2852347861447883e-01  1.2872944007188011e-01  1.2878959447088270e-01  1.2880487369847246e-01  1.2880817354195023e-01  1.2880875440246459e-01  1.2880882998188559e-01  1.2880883491028719e-01  1.2880883453337713e-01  1.2876831964283306e-01  1.2872762959705064e-01  1.2854794499930705e-01  1.2801687039439008e-01  1.2663559639367258e-01  1.2344322390592298e-01  1.1698297137189011e-01  1.0583191382981348e-01  8.9951769132467094e-02  7.1881080421610996e-02  5.5865216956323308e-02  4.5335939925604828e-02  4.1700716475589872e-02  4.5178165895014201e-02  5.5533111735377408e-02  7.1406583268998555e-02  8.9476247381794327e-02  1.0552389108926068e-01  1.1688815235529901e-01  1.2348211123625530e-01  1.2671110789490792e-01  1.2807749345546648e-01  1.2858374074128612e-01  1.2874833208224820e-01  1.2879493113591434e-01  1.2880621079095952e-01  1.2880846335020818e-01  1.2880880641049078e-01  1.2880883698616050e-01  1.2880883537946350e-01  1.2880883440793883e-01  1.2877762028299691e-01  1.2874731322843061e-01  1.2861357136279106e-01  1.2822204021686115e-01  1.2721163468921895e-01  1.2488667674220283e-01  1.2017256360045329e-01  1.1193029760004879e-01  9.9854153890296532e-02  8.5468203993212533e-02  7.1947286141955988e-02  6.2509487510366155e-02  5.9066205552872370e-02  6.2171340385947987e-02  7.1311266167074228e-02  8.4681161696525509e-02  9.9166402736467235e-02  1.1153491889209471e-01  1.2006980705729974e-01  1.2494583207280867e-01  1.2730806376259088e-01  1.2829611359401696e-01  1.2865590103598060e-01  1.2876969703378027e-01  1.2880053432464092e-01  1.2880748345868920e-01  1.2880870352406229e-01  1.2880884067943349e-01  1.2880883954136579e-01  1.2880883503985505e-01  1.2880883410634192e-01  1.2878763166698162e-01  1.2876762247007262e-01  1.2867920472179725e-01  1.2842269141540436e-01  1.2776618090432876e-01  1.2626475564910414e-01  1.2322403389764185e-01  1.1786374359704049e-01  1.0983198604768557e-01  9.9884377781259373e-02  9.0040351702721649e-02  8.2791112473610054e-02  8.0005713812976068e-02  8.2373152454892379e-02  8.9321690460540878e-02  9.9098049450552991e-02  1.0923639923623936e-01  1.1758541877745868e-01  1.2320539114970268e-01  1.2636529578670824e-01  1.2787685850523797e-01  1.2849935566620288e-01  1.2872060602829785e-01  1.2878787572797373e-01  1.2880495056832622e-01  1.2880837532051898e-01  1.2880884028485678e-01  1.2880885192727407e-01  1.2880883819189556e-01  1.2880883431381068e-01  1.2880883384540845e-01  1.2879608028308120e-01  1.2878433336112882e-01  1.2873222849922222e-01  1.2858234171164387e-01  1.2820199356330964e-01  1.2733888905077392e-01  1.2559951475206732e-01  1.2252876514675612e-01  1.1787234563390234e-01  1.1196127979230441e-01  1.0590371892162272e-01  1.0127243187650256e-01  9.9427918265119250e-02  1.0094119948577281e-01  1.0537691405614996e-01  1.1145198313441863e-01  1.1755657023689921e-01  1.2244957418937408e-01  1.2567874694318049e-01  1.2746767241919688e-01  1.2831053963225947e-01  1.2865015904530899e-01  1.2876663798850393e-01  1.2879998984141774e-01  1.2880759872467051e-01  1.2880881618226686e-01  1.2880888060077317e-01  1.2880884737442669e-01  1.2880883541205523e-01  1.2880883375729066e-01  1.2880883377699656e-01  1.2880201642408631e-01  1.2879586736098084e-01  1.2876840597932046e-01  1.2869001186469251e-01  1.2849271344763358e-01  1.2804884264785074e-01  1.2716124340857043e-01  1.2560117694177800e-01  1.2323116443626866e-01  1.2019234068751188e-01  1.1702501018373253e-01  1.1455820517664178e-01  1.1356597140226146e-01  1.1439505715059219e-01  1.1678978617235761e-01  1.2000906843919962e-01  1.2317785652821585e-01  1.2567102828358270e-01  1.2729090180300917e-01  1.2817450477317233e-01  1.2858231019405347e-01  1.2874129995953654e-01  1.2879287528657449e-01  1.2880625053276323e-01  1.2880873806030904e-01  1.2880893230424181e-01  1.2880886813337530e-01  1.2880883856488248e-01  1.2880883346032349e-01  1.2880883362903420e-01  1.2880883387855371e-01  1.2880558664248942e-01  1.2880271060051079e-01  1.2878973018959197e-01  1.2875291608286421e-01  1.2866093504541723e-01  1.2845573741472308e-01  1.2804907957180583e-01  1.2734006609513418e-01  1.2626857062795668e-01  1.2489619826756668e-01  1.2346249061296333e-01  1.2234476257546611e-01  1.2190577161886219e-01  1.2231027704764519e-01  1.2343147007925620e-01  1.2491305457895467e-01  1.2634881337940745e-01  1.2746158100783514e-01  1.2817310791456463e-01  1.2855326044873550e-01  1.2872321095697659e-01  1.2878605034164356e-01  1.2880461348114169e-01  1.2880859710230005e-01  1.2880900402490400e-01  1.2880890425146635e-01  1.2880884537700066e-01  1.2880883301683932e-01  1.2880883301721011e-01  1.2880883380115218e-01  1.2880883401448046e-01  1.2880745318708930e-01  1.2880624972116328e-01  1.2880073572999945e-01  1.2878517899314285e-01  1.2874653511807022e-01  1.2866095959959203e-01  1.2849285869449928e-01  1.2820254099201878e-01  1.2776776727044592e-01  1.2721536676860412e-01  1.2664288900275894e-01  1.2620277126083337e-01  1.2604120636572044e-01  1.2622241323009287e-01  1.2668977224605452e-01  1.2729388798373065e-01  1.2786936301196672e-01  1.2830747885462548e-01  1.2858140354527289e-01  1.2872305066241435e-01  1.2878314429954041e-01  1.2880343752837708e-01  1.2880844585518414e-01  1.2880907756196333e-01  1.2880895129482176e-01  1.2880885629396061e-01  1.2880883256716769e-01  1.2880883188416925e-01  1.2880883346039831e-01  1.2880883400396673e-01  1.2880883407866775e-01  1.2880830937510671e-01  1.2880785872524539e-01  1.2880575129756863e-01  1.2879982908406379e-01  1.2878517840972828e-01  1.2875292638010655e-01  1.2869007124162371e-01  1.2858255284373277e-01  1.2842327114631033e-01  1.2822334440866093e-01  1.2801932833298169e-01  1.2786680822808036e-01  1.2781782066758207e-01  1.2789334012188117e-01  1.2806985257394507e-01  1.2829099059439616e-01  1.2849660184578543e-01  1.2864900444927604e-01  1.2874094172903039e-01  1.2878597817480261e-01  1.2880343181302598e-01  1.2880837967024900e-01  1.2880912546610815e-01  1.2880899350247524e-01  1.2880886875336525e-01  1.2880883226691980e-01  1.2880883026595466e-01  1.2880883288097797e-01  1.2880883395333048e-01  1.2880883408696264e-01  1.2880883406533472e-01  1.2880865590398308e-01  1.2880850502557317e-01  1.2880778020975056e-01  1.2880574927861316e-01  1.2880073726880689e-01  1.2878975251369221e-01  1.2876849075728461e-01  1.2873245679867842e-01  1.2867970239909940e-01  1.2861448843976850e-01  1.2854939817686567e-01  1.2850284234760895e-01  1.2849135135564269e-01  1.2852058107147357e-01  1.2858138176089906e-01  1.2865433592012041e-01  1.2871977987286246e-01  1.2876630502611341e-01  1.2879278209877362e-01  1.2880460096904425e-01  1.2880844817076240e-01  1.2880912676061357e-01  1.2880901103264145e-01  1.2880887737976027e-01  1.2880883215160913e-01  1.2880882855267362e-01  1.2880883213365596e-01  1.2880883387387884e-01  1.2880883414137495e-01  1.2880883406849164e-01  1.2880883402799695e-01  1.2880878004155433e-01  1.2880873497558240e-01  1.2880851082056125e-01  1.2880788416259947e-01  1.2880633907341482e-01  1.2880296344831588e-01  1.2879646937281522e-01  1.2878556510615949e-01  1.2876980923350906e-01  1.2875069497073083e-01  1.2873218673116016e-01  1.2871981603165783e-01  1.2871825422200620e-01  1.2872865560631935e-01  1.2874770858029402e-01  1.2876929893157441e-01  1.2878767981648126e-01  1.2879992225613313e-01  1.2880623949778344e-01  1.2880860055693696e-01  1.2880908061724344e-01  1.2880899444310143e-01  1.2880887747663897e-01  1.2880883212099