<?xml version="1.0"?>
<VTKFile type="UnstructuredGrid"  version="0.1"  >
<UnstructuredGrid>
<Piece  NumberOfPoints="441" NumberOfCells="800">
<Points>
<DataArray  type="Float64"  NumberOfComponents="3"  format="ascii">-0.5 -0.5 0  -0.45 -0.5 0  -0.4 -0.5 0  -0.35 -0.5 0  -0.3 -0.5 0  -0.25 -0.5 0  -0.2 -0.5 0  -0.15 -0.5 0  -0.09999999999999998 -0.5 0  -0.04999999999999999 -0.5 0  0 -0.5 0  0.05000000000000004 -0.5 0  0.09999999999999998 -0.5 0  0.15 -0.5 0  0.2 -0.5 0  0.25 -0.5 0  0.3 -0.5 0  0.35 -0.5 0  0.4 -0.5 0  0.45 -0.5 0  0.5 -0.5 0  -0.5 -0.45 0  -0.45 -0.45 0  -0.4 -0.45 0  -0.35 -0.45 0  -0.3 -0.45 0  -0.25 -0.45 0  -0.2 -0.45 0  -0.15 -0.45 0  -0.09999999999999998 -0.45 0  -0.04999999999999999 -0.45 0  0 -0.45 0  0.05000000000000004 -0.45 0  0.09999999999999998 -0.45 0  0.15 -0.45 0  0.2 -0.45 0  0.25 -0.45 0  0.3 -0.45 0  0.35 -0.45 0  0.4 -0.45 0  0.45 -0.45 0  0.5 -0.45 0  -0.5 -0.4 0  -0.45 -0.4 0  -0.4 -0.4 0  -0.35 -0.4 0  -0.3 -0.4 0  -0.25 -0.4 0  -0.2 -0.4 0  -0.15 -0.4 0  -0.09999999999999998 -0.4 0  -0.04999999999999999 -0.4 0  0 -0.4 0  0.05000000000000004 -0.4 0  0.09999999999999998 -0.4 0  0.15 -0.4 0  0.2 -0.4 0  0.25 -0.4 0  0.3 -0.4 0  0.35 -0.4 0  0.4 -0.4 0  0.45 -0.4 0  0.5 -0.4 0  -0.5 -0.35 0  -0.45 -0.35 0  -0.4 -0.35 0  -0.35 -0.35 0  -0.3 -0.35 0  -0.25 -0.35 0  -0.2 -0.35 0  -0.15 -0.35 0  -0.09999999999999998 -0.35 0  -0.04999999999999999 -0.35 0  0 -0.35 0  0.05000000000000004 -0.35 0  0.09999999999999998 -0.35 0  0.15 -0.35 0  0.2 -0.35 0  0.25 -0.35 0  0.3 -0.35 0  0.35 -0.35 0  0.4 -0.35 0  0.45 -0.35 0  0.5 -0.35 0  -0.5 -0.3 0  -0.45 -0.3 0  -0.4 -0.3 0  -0.35 -0.3 0  -0.3 -0.3 0  -0.25 -0.3 0  -0.2 -0.3 0  -0.15 -0.3 0  -0.09999999999999998 -0.3 0  -0.04999999999999999 -0.3 0  0 -0.3 0  0.05000000000000004 -0.3 0  0.09999999999999998 -0.3 0  0.15 -0.3 0  0.2 -0.3 0  0.25 -0.3 0  0.3 -0.3 0  0.35 -0.3 0  0.4 -0.3 0  0.45 -0.3 0  0.5 -0.3 0  -0.5 -0.25 0  -0.45 -0.25 0  -0.4 -0.25 0  -0.35 -0.25 0  -0.3 -0.25 0  -0.25 -0.25 0  -0.2 -0.25 0  -0.15 -0.25 0  -0.09999999999999998 -0.25 0  -0.04999999999999999 -0.25 0  0 -0.25 0  0.05000000000000004 -0.25 0  0.09999999999999998 -0.25 0  0.15 -0.25 0  0.2 -0.25 0  0.25 -0.25 0  0.3 -0.25 0  0.35 -0.25 0  0.4 -0.25 0  0.45 -0.25 0  0.5 -0.25 0  -0.5 -0.2 0  -0.45 -0.2 0  -0.4 -0.2 0  -0.35 -0.2 0  -0.3 -0.2 0  -0.25 -0.2 0  -0.2 -0.2 0  -0.15 -0.2 0  -0.09999999999999998 -0.2 0  -0.04999999999999999 -0.2 0  0 -0.2 0  0.05000000000000004 -0.2 0  0.09999999999999998 -0.2 0  0.15 -0.2 0  0.2 -0.2 0  0.25 -0.2 0  0.3 -0.2 0  0.35 -0.2 0  0.4 -0.2 0  0.45 -0.2 0  0.5 -0.2 0  -0.5 -0.15 0  -0.45 -0.15 0  -0.4 -0.15 0  -0.35 -0.15 0  -0.3 -0.15 0  -0.25 -0.15 0  -0.2 -0.15 0  -0.15 -0.15 0  -0.09999999999999998 -0.15 0  -0.04999999999999999 -0.15 0  0 -0.15 0  0.05000000000000004 -0.15 0  0.09999999999999998 -0.15 0  0.15 -0.15 0  0.2 -0.15 0  0.25 -0.15 0  0.3 -0.15 0  0.35 -0.15 0  0.4 -0.15 0  0.45 -0.15 0  0.5 -0.15 0  -0.5 -0.09999999999999998 0  -0.45 -0.09999999999999998 0  -0.4 -0.09999999999999998 0  -0.35 -0.09999999999999998 0  -0.3 -0.09999999999999998 0  -0.25 -0.09999999999999998 0  -0.2 -0.09999999999999998 0  -0.15 -0.09999999999999998 0  -0.09999999999999998 -0.09999999999999998 0  -0.04999999999999999 -0.09999999999999998 0  0 -0.09999999999999998 0  0.05000000000000004 -0.09999999999999998 0  0.09999999999999998 -0.09999999999999998 0  0.15 -0.09999999999999998 0  0.2 -0.09999999999999998 0  0.25 -0.09999999999999998 0  0.3 -0.09999999999999998 0  0.35 -0.09999999999999998 0  0.4 -0.09999999999999998 0  0.45 -0.09999999999999998 0  0.5 -0.09999999999999998 0  -0.5 -0.04999999999999999 0  -0.45 -0.04999999999999999 0  -0.4 -0.04999999999999999 0  -0.35 -0.04999999999999999 0  -0.3 -0.04999999999999999 0  -0.25 -0.04999999999999999 0  -0.2 -0.04999999999999999 0  -0.15 -0.04999999999999999 0  -0.09999999999999998 -0.04999999999999999 0  -0.04999999999999999 -0.04999999999999999 0  0 -0.04999999999999999 0  0.05000000000000004 -0.04999999999999999 0  0.09999999999999998 -0.04999999999999999 0  0.15 -0.04999999999999999 0  0.2 -0.04999999999999999 0  0.25 -0.04999999999999999 0  0.3 -0.04999999999999999 0  0.35 -0.04999999999999999 0  0.4 -0.04999999999999999 0  0.45 -0.04999999999999999 0  0.5 -0.04999999999999999 0  -0.5 0 0  -0.45 0 0  -0.4 0 0  -0.35 0 0  -0.3 0 0  -0.25 0 0  -0.2 0 0  -0.15 0 0  -0.09999999999999998 0 0  -0.04999999999999999 0 0  0 0 0  0.05000000000000004 0 0  0.09999999999999998 0 0  0.15 0 0  0.2 0 0  0.25 0 0  0.3 0 0  0.35 0 0  0.4 0 0  0.45 0 0  0.5 0 0  -0.5 0.05000000000000004 0  -0.45 0.05000000000000004 0  -0.4 0.05000000000000004 0  -0.35 0.05000000000000004 0  -0.3 0.05000000000000004 0  -0.25 0.05000000000000004 0  -0.2 0.05000000000000004 0  -0.15 0.05000000000000004 0  -0.09999999999999998 0.05000000000000004 0  -0.04999999999999999 0.05000000000000004 0  0 0.05000000000000004 0  0.05000000000000004 0.05000000000000004 0  0.09999999999999998 0.05000000000000004 0  0.15 0.05000000000000004 0  0.2 0.05000000000000004 0  0.25 0.05000000000000004 0  0.3 0.05000000000000004 0  0.35 0.05000000000000004 0  0.4 0.05000000000000004 0  0.45 0.05000000000000004 0  0.5 0.05000000000000004 0  -0.5 0.09999999999999998 0  -0.45 0.09999999999999998 0  -0.4 0.09999999999999998 0  -0.35 0.09999999999999998 0  -0.3 0.09999999999999998 0  -0.25 0.09999999999999998 0  -0.2 0.09999999999999998 0  -0.15 0.09999999999999998 0  -0.09999999999999998 0.09999999999999998 0  -0.04999999999999999 0.09999999999999998 0  0 0.09999999999999998 0  0.05000000000000004 0.09999999999999998 0  0.09999999999999998 0.09999999999999998 0  0.15 0.09999999999999998 0  0.2 0.09999999999999998 0  0.25 0.09999999999999998 0  0.3 0.09999999999999998 0  0.35 0.09999999999999998 0  0.4 0.09999999999999998 0  0.45 0.09999999999999998 0  0.5 0.09999999999999998 0  -0.5 0.15 0  -0.45 0.15 0  -0.4 0.15 0  -0.35 0.15 0  -0.3 0.15 0  -0.25 0.15 0  -0.2 0.15 0  -0.15 0.15 0  -0.09999999999999998 0.15 0  -0.04999999999999999 0.15 0  0 0.15 0  0.05000000000000004 0.15 0  0.09999999999999998 0.15 0  0.15 0.15 0  0.2 0.15 0  0.25 0.15 0  0.3 0.15 0  0.35 0.15 0  0.4 0.15 0  0.45 0.15 0  0.5 0.15 0  -0.5 0.2 0  -0.45 0.2 0  -0.4 0.2 0  -0.35 0.2 0  -0.3 0.2 0  -0.25 0.2 0  -0.2 0.2 0  -0.15 0.2 0  -0.09999999999999998 0.2 0  -0.04999999999999999 0.2 0  0 0.2 0  0.05000000000000004 0.2 0  0.09999999999999998 0.2 0  0.15 0.2 0  0.2 0.2 0  0.25 0.2 0  0.3 0.2 0  0.35 0.2 0  0.4 0.2 0  0.45 0.2 0  0.5 0.2 0  -0.5 0.25 0  -0.45 0.25 0  -0.4 0.25 0  -0.35 0.25 0  -0.3 0.25 0  -0.25 0.25 0  -0.2 0.25 0  -0.15 0.25 0  -0.09999999999999998 0.25 0  -0.04999999999999999 0.25 0  0 0.25 0  0.05000000000000004 0.25 0  0.09999999999999998 0.25 0  0.15 0.25 0  0.2 0.25 0  0.25 0.25 0  0.3 0.25 0  0.35 0.25 0  0.4 0.25 0  0.45 0.25 0  0.5 0.25 0  -0.5 0.3 0  -0.45 0.3 0  -0.4 0.3 0  -0.35 0.3 0  -0.3 0.3 0  -0.25 0.3 0  -0.2 0.3 0  -0.15 0.3 0  -0.09999999999999998 0.3 0  -0.04999999999999999 0.3 0  0 0.3 0  0.05000000000000004 0.3 0  0.09999999999999998 0.3 0  0.15 0.3 0  0.2 0.3 0  0.25 0.3 0  0.3 0.3 0  0.35 0.3 0  0.4 0.3 0  0.45 0.3 0  0.5 0.3 0  -0.5 0.35 0  -0.45 0.35 0  -0.4 0.35 0  -0.35 0.35 0  -0.3 0.35 0  -0.25 0.35 0  -0.2 0.35 0  -0.15 0.35 0  -0.09999999999999998 0.35 0  -0.04999999999999999 0.35 0  0 0.35 0  0.05000000000000004 0.35 0  0.09999999999999998 0.35 0  0.15 0.35 0  0.2 0.35 0  0.25 0.35 0  0.3 0.35 0  0.35 0.35 0  0.4 0.35 0  0.45 0.35 0  0.5 0.35 0  -0.5 0.4 0  -0.45 0.4 0  -0.4 0.4 0  -0.35 0.4 0  -0.3 0.4 0  -0.25 0.4 0  -0.2 0.4 0  -0.15 0.4 0  -0.09999999999999998 0.4 0  -0.04999999999999999 0.4 0  0 0.4 0  0.05000000000000004 0.4 0  0.09999999999999998 0.4 0  0.15 0.4 0  0.2 0.4 0  0.25 0.4 0  0.3 0.4 0  0.35 0.4 0  0.4 0.4 0  0.45 0.4 0  0.5 0.4 0  -0.5 0.45 0  -0.45 0.45 0  -0.4 0.45 0  -0.35 0.45 0  -0.3 0.45 0  -0.25 0.45 0  -0.2 0.45 0  -0.15 0.45 0  -0.09999999999999998 0.45 0  -0.04999999999999999 0.45 0  0 0.45 0  0.05000000000000004 0.45 0  0.09999999999999998 0.45 0  0.15 0.45 0  0.2 0.45 0  0.25 0.45 0  0.3 0.45 0  0.35 0.45 0  0.4 0.45 0  0.45 0.45 0  0.5 0.45 0  -0.5 0.5 0  -0.45 0.5 0  -0.4 0.5 0  -0.35 0.5 0  -0.3 0.5 0  -0.25 0.5 0  -0.2 0.5 0  -0.15 0.5 0  -0.09999999999999998 0.5 0  -0.04999999999999999 0.5 0  0 0.5 0  0.05000000000000004 0.5 0  0.09999999999999998 0.5 0  0.15 0.5 0  0.2 0.5 0  0.25 0.5 0  0.3 0.5 0  0.35 0.5 0  0.4 0.5 0  0.45 0.5 0  0.5 0.5 0  </DataArray>
</Points>
<Cells>
[...]
<PointData  Scalars="f_18-2"> 
<DataArray  type="Float64"  Name="f_18-2"  format="ascii">1.8154499427597814e-01  1.8154499427520798e-01  1.8154499427346835e-01  1.8154499427197238e-01  1.8154499427387485e-01  1.8154499428071569e-01  1.8154499428758214e-01  1.8154499428482290e-01  1.8154499426883144e-01  1.8154499425035453e-01  1.8154499424627890e-01  1.8154499426116488e-01  1.8154499428247317e-01  1.8154499429685722e-01  1.8154499430332371e-01  1.8154499430413923e-01  1.8154499429334522e-01  1.8154499426948098e-01  1.8154499425290838e-01  1.8154499426422679e-01  1.8154499427347223e-01  1.8154499427516527e-01  1.8154499427418735e-01  1.8154499427287829e-01  1.8154499427410545e-01  1.8154499428010257e-01  1.8154499428732301e-01  1.8154499428492654e-01  1.8154499426500920e-01  1.8154499423794432e-01  1.8154499423091633e-01  1.8154499426098356e-01  1.8154499431095031e-01  1.8154499434374413e-01  1.8154499434212959e-01  1.8154499431969423e-01  1.8154499428944487e-01  1.8154499424672318e-01  1.8154499420225650e-01  1.8154499420308468e-01  1.8154499426729703e-01  1.8154499428897930e-01  1.8154499427264698e-01  1.8154499427238763e-01  1.8154499427447113e-01  1.8154499428362697e-01  1.8154499429503487e-01  1.8154499428894993e-01  1.8154499424635845e-01  1.8154499418485612e-01  1.8154499417174505e-01  1.8154499426883344e-01  1.8154499444417979e-01  1.8154499456533893e-01  1.8154499452103925e-01  1.8154499434009227e-01  1.8154499414494721e-01  1.8154499400131199e-01  1.8154499389763881e-01  1.8154499388827824e-01  1.8154499410981711e-01  1.8154499448792966e-01  1.8154499446025832e-01  1.8154499426973428e-01  1.8154499427374357e-01  1.8154499428563706e-01  1.8154499430172641e-01  1.8154499429335566e-01  1.8154499422226872e-01  1.8154499410652419e-01  1.8154499407836280e-01  1.8154499430951804e-01  1.8154499478402025e-01  1.8154499515327480e-01  1.8154499496449450e-01  1.8154499414708566e-01  1.8154499318360701e-01  1.8154499264774648e-01  1.8154499265578503e-01  1.8154499301261820e-01  1.8154499380478931e-01  1.8154499526660189e-01  1.8154499660912266e-01  1.8154499533324972e-01  1.8154499427360213e-01  1.8154499428454782e-01  1.8154499430418269e-01  1.8154499429591611e-01  1.8154499419976949e-01  1.8154499402170546e-01  1.8154499396869642e-01  1.8154499440374505e-01  1.8154499542118824e-01  1.8154499632251625e-01  1.8154499579019440e-01  1.8154499313430209e-01  1.8154498953417517e-01  1.8154498750760212e-01  1.8154498862534077e-01  1.8154499209763567e-01  1.8154499626735363e-01  1.8154500087478581e-01  1.8154500590154998e-01  1.8154500723120068e-01  1.8154499537583893e-01  1.8154499429237150e-01  1.8154499430208512e-01  1.8154499429587539e-01  1.8154499419025033e-01  1.8154499396432441e-01  1.8154499387677775e-01  1.8154499453068118e-01  1.8154499628540688e-01  1.8154499806535773e-01  1.8154499695051143e-01  1.8154499034050547e-01  1.8154497998284805e-01  1.8154497336718339e-01  1.8154497860019964e-01  1.8154499627886736e-01  1.8154501800396000e-01  1.8154503498034438e-01  1.8154504570753249e-01  1.8154504933975329e-01  1.8154503010618783e-01  1.8154495636732468e-01  1.8154499431666568e-01  1.8154499429810067e-01  1.8154499419947120e-01  1.8154499396200194e-01  1.8154499383774597e-01  1.8154499462428603e-01  1.8154499707752286e-01  1.8154499994891055e-01  1.8154499817555525e-01  1.8154498524490442e-01  1.8154496186155494e-01  1.8154494441534355e-01  1.8154495975057305e-01  1.8154502190319821e-01  1.8154511043691149e-01  1.8154517956863470e-01  1.8154519665362034e-01  1.8154516431945580e-01  1.8154508753070589e-01  1.8154491804917958e-01  1.8154456005513742e-01  1.8154499430564353e-01  1.8154499422923431e-01  1.8154499401698090e-01  1.8154499386743703e-01  1.8154499462204404e-01  1.8154499741329430e-01  1.8154500122305181e-01  1.8154499911090111e-01  1.8154497899777935e-01  1.8154493701098109e-01  1.8154490021446104e-01  1.8154493312249859e-01  1.8154509685701867e-01  1.8154537166714291e-01  1.8154561860410959e-01  1.8154565490497301e-01  1.8154539964351804e-01  1.8154492311226006e-01  1.8154429892942481e-01  1.8154340663670046e-01  1.8154196977381273e-01  1.8154499421586309e-01  1.8154499410277300e-01  1.8154499395529342e-01  1.8154499452584252e-01  1.8154499711202671e-01  1.8154500128197049e-01  1.8154499950464723e-01  1.8154497451360349e-01  1.8154491403192760e-01  1.8154485160712530e-01  1.8154490512990082e-01  1.8154523885228846e-01  1.8154589689920644e-01  1.8154659733612596e-01  1.8154672872435618e-01  1.8154570937463560e-01  1.8154347404512844e-01  1.8154053391442326e-01  1.8153736935398956e-01  1.8153373666653874e-01  1.8152882786754471e-01  1.8154499407790686e-01  1.8154499405051125e-01  1.8154499439975655e-01  1.8154499634757268e-01  1.8154500010955518e-01  1.8154499925951401e-01  1.8154497444642245e-01  1.8154490420854658e-01  1.8154481843465980e-01  1.8154488410041103e-01  1.8154541760886761e-01  1.8154664885053454e-01  1.8154819964878746e-01  1.8154864202149165e-01  1.8154581962144145e-01  1.8153821516890381e-01  1.8152643423650155e-01  1.8151307165527397e-01  1.8150042082325013e-01  1.8148809536833413e-01  1.8147358261333926e-01  1.8154499403878235e-01  1.8154499427726492e-01  1.8154499549162581e-01  1.8154499828212251e-01  1.8154499842070287e-01  1.8154497879523493e-01  1.8154491290503280e-01  1.8154481704460418e-01  1.8154487559012050e-01  1.8154554823778238e-01  1.8154736392354670e-01  1.8155005449430411e-01  1.8155116820735476e-01  1.8154533706715686e-01  1.8152598355798646e-01  1.8148986331682521e-01  1.8144132786480610e-01  1.8139108457616498e-01  1.8134820675449997e-01  1.8131222082141152e-01  1.8127478139430675e-01  1.8154499426050433e-01  1.8154499481962927e-01  1.8154499652785874e-01  1.8154499721087883e-01  1.8154498492719029e-01  1.8154493501541596e-01  1.8154484779705460e-01  1.8154488150223441e-01  1.8154555094018632e-01  1.8154767222647189e-01  1.8155135457362928e-01  1.8155345091312100e-01  1.8154425595708154e-01  1.8150672107105073e-01  1.8142267194850223e-01  1.8128654802368799e-01  1.8111734419500497e-01  1.8095329913849612e-01  1.8082590760596759e-01  1.8073443372123860e-01  1.8065029453220269e-01  1.8154499470615257e-01  1.8154499531417065e-01  1.8154499599110357e-01  1.8154498997434643e-01  1.8154495951763441e-01  1.8154489504752772e-01  1.8154490084431377e-01  1.8154542547795680e-01  1.8154739418685475e-01  1.8155139160146913e-01  1.8155440995943442e-01  1.8154328382015725e-01  1.8148730080999018e-01  1.8133819800135378e-01  1.8104874043107566e-01  1.8061153114638209e-01  1.8009268603085979e-01  1.7961476945961879e-01  1.7927717813329783e-01  1.7907651109361991e-01  1.7891561969992237e-01  1.8154499504526722e-01  1.8154499513886488e-01  1.8154499281256228e-01  1.8154497789623930e-01  1.8154493935962682e-01  1.8154492864683341e-01  1.8154525069788943e-01  1.8154670343775708e-01  1.8155015871186578e-01  1.8155354159995279e-01  1.8154325571336860e-01  1.8147874710809142e-01  1.8127620006102629e-01  1.8081017026301946e-01  1.7996135631278570e-01  1.7872064892643055e-01  1.7728659741720001e-01  1.7602090798035519e-01  1.7521634777824355e-01  1.7485526389354966e-01  1.7461833054542025e-01  1.8154499488196485e-01  1.8154499400037083e-01  1.8154498810128994e-01  1.8154496959665695e-01  1.8154495641944457e-01  1.8154511009741922e-01  1.8154596242529344e-01  1.8154834644731827e-01  1.8155133030789880e-01  1.8154417508260909e-01  1.8148664115216426e-01  1.8127513348015697e-01  1.8070603633260254e-01  1.7947500192468074e-01  1.7728334338985560e-01  1.7410560120666935e-01  1.7047676631033723e-01  1.6739346101966571e-01  1.6566737486697503e-01  1.6523023262963601e-01  1.6509356306056530e-01  1.8154499416963960e-01  1.8154499245801056e-01  1.8154498536638453e-01  1.8154497687963822e-01  1.8154503346355544e-01  1.8154543112971042e-01  1.8154674595010870e-01  1.8154882813664514e-01  1.8154520858800099e-01  1.8150548933042854e-01  1.8133505045355114e-01  1.8080555642537161e-01  1.7947166859652136e-01  1.7664352871672842e-01  1.7159292825399095e-01  1.6421999792803096e-01  1.5585937994655541e-01  1.4902170612185847e-01  1.4571434152661941e-01  1.4573833940243092e-01  1.4639283846680279e-01  1.8154499338069677e-01  1.8154499171055444e-01  1.8154498811355330e-01  1.8154500422615633e-01  1.8154515208813649e-01  1.8154573176267155e-01  1.8154688021397478e-01  1.8154564998492656e-01  1.8152441956657808e-01  1.8141789529161875e-01  1.8103951407086621e-01  1.7995011276729717e-01  1.7727809684806833e-01  1.7159982055040415e-01  1.6131940203091485e-01  1.4627258113572097e-01  1.2961598592730778e-01  1.1669143721716960e-01  1.1122886488109721e-01  1.1268585430265872e-01  1.1534260677157783e-01  1.8154499316075545e-01  1.8154499260979515e-01  1.8154499636627541e-01  1.8154504042356748e-01  1.8154524406299813e-01  1.8154573972889873e-01  1.8154552020835124e-01  1.8153668005143153e-01  1.8148458738705589e-01  1.8127436091540428e-01  1.8059211432275243e-01  1.7870375284064846e-01  1.7411535298220618e-01  1.6427907588360827e-01  1.4635559318830629e-01  1.2074279080806259e-01  9.4270145859991661e-02  7.5575275041068479e-02  6.8504318025587513e-02  7.1413853438017580e-02  7.6118171545542873e-02  1.8154499371792399e-01  1.8154499471750532e-01  1.8154500531040257e-01  1.8154506147921373e-01  1.8154522404195123e-01  1.8154522934239228e-01  1.8154228158679953e-01  1.8152198852319978e-01  1.8142955609131542e-01  1.8109453377047599e-01  1.8006396560521851e-01  1.7728136993751326e-01  1.7055816742937238e-01  1.5608955634413674e-01  1.2994628006218670e-01  9.4505667733958076e-02  6.1747838325946852e-02  4.1624755796888582e-02  3.4833946636820837e-02  3.7836850695229851e-02  4.2673570811318846e-02  1.8154499453001852e-01  1.8154499634468210e-01  1.8154500779998867e-01  1.8154504480566805e-01  1.8154504464612586e-01  1.8154418953646645e-01  1.8153765165740762e-01  1.8150461046520303e-01  1.8137216737309775e-01  1.8092346624508249e-01  1.7959538789234117e-01  1.7608560999634360e-01  1.6769091364923142e-01  1.4971062073379360e-01  1.1767112839258795e-01  7.6358136473919438e-02  4.1927642037044126e-02  2.3534866026103145e-02  1.8061018844892373e-02  2.0426850671048661e-02  2.4298876508034046e-02  1.8154499472919927e-01  1.8154499571502306e-01  1.8154499924106016e-01  1.8154498498767230e-01  1.8154473401880006e-01  1.8154287065966299e-01  1.8153286488114578e-01  1.8148934794580288e-01  1.8132855161086298e-01  1.8080997361288337e-01  1.7932347483798783e-01  1.7548464712470266e-01  1.6648218648777482e-01  1.4752325028270641e-01  1.1396961717141592e-01  7.0755331982315497e-02  3.5618914614061865e-02  1.8136028600618973e-02  1.3461712126771703e-02  1.5439981776862904e-02  1.8790140366919936e-02  </DataArray> 
</PointData> 
</Piece>
</UnstructuredGrid>
</VTKFile>