<?xml version="1.0"?>
<VTKFile type="UnstructuredGrid"  version="0.1"  >
<UnstructuredGrid>
<Piece  NumberOfPoints="441" NumberOfCells="800">
<Points>
<DataArray  type="Float64"  NumberOfComponents="3"  format="ascii">-0.5 -0.5 0  -0.45 -0.5 0  -0.4 -0.5 0  -0.35 -0.5 0  -0.3 -0.5 0  -0.25 -0.5 0  -0.2 -0.5 0  -0.15 -0.5 0  -0.09999999999999998 -0.5 0  -0.04999999999999999 -0.5 0  0 -0.5 0  0.05000000000000004 -0.5 0  0.09999999999999998 -0.5 0  0.15 -0.5 0  0.2 -0.5 0  0.25 -0.5 0  0.3 -0.5 0  0.35 -0.5 0  0.4 -0.5 0  0.45 -0.5 0  0.5 -0.5 0  -0.5 -0.45 0  -0.45 -0.45 0  -0.4 -0.45 0  -0.35 -0.45 0  -0.3 -0.45 0  -0.25 -0.45 0  -0.2 -0.45 0  -0.15 -0.45 0  -0.09999999999999998 -0.45 0  -0.04999999999999999 -0.45 0  0 -0.45 0  0.05000000000000004 -0.45 0  0.09999999999999998 -0.45 0  0.15 -0.45 0  0.2 -0.45 0  0.25 -0.45 0  0.3 -0.45 0  0.35 -0.45 0  0.4 -0.45 0  0.45 -0.45 0  0.5 -0.45 0  -0.5 -0.4 0  -0.45 -0.4 0  -0.4 -0.4 0  -0.35 -0.4 0  -0.3 -0.4 0  -0.25 -0.4 0  -0.2 -0.4 0  -0.15 -0.4 0  -0.09999999999999998 -0.4 0  -0.04999999999999999 -0.4 0  0 -0.4 0  0.05000000000000004 -0.4 0  0.09999999999999998 -0.4 0  0.15 -0.4 0  0.2 -0.4 0  0.25 -0.4 0  0.3 -0.4 0  0.35 -0.4 0  0.4 -0.4 0  0.45 -0.4 0  0.5 -0.4 0  -0.5 -0.35 0  -0.45 -0.35 0  -0.4 -0.35 0  -0.35 -0.35 0  -0.3 -0.35 0  -0.25 -0.35 0  -0.2 -0.35 0  -0.15 -0.35 0  -0.09999999999999998 -0.35 0  -0.04999999999999999 -0.35 0  0 -0.35 0  0.05000000000000004 -0.35 0  0.09999999999999998 -0.35 0  0.15 -0.35 0  0.2 -0.35 0  0.25 -0.35 0  0.3 -0.35 0  0.35 -0.35 0  0.4 -0.35 0  0.45 -0.35 0  0.5 -0.35 0  -0.5 -0.3 0  -0.45 -0.3 0  -0.4 -0.3 0  -0.35 -0.3 0  -0.3 -0.3 0  -0.25 -0.3 0  -0.2 -0.3 0  -0.15 -0.3 0  -0.09999999999999998 -0.3 0  -0.04999999999999999 -0.3 0  0 -0.3 0  0.05000000000000004 -0.3 0  0.09999999999999998 -0.3 0  0.15 -0.3 0  0.2 -0.3 0  0.25 -0.3 0  0.3 -0.3 0  0.35 -0.3 0  0.4 -0.3 0  0.45 -0.3 0  0.5 -0.3 0  -0.5 -0.25 0  -0.45 -0.25 0  -0.4 -0.25 0  -0.35 -0.25 0  -0.3 -0.25 0  -0.25 -0.25 0  -0.2 -0.25 0  -0.15 -0.25 0  -0.09999999999999998 -0.25 0  -0.04999999999999999 -0.25 0  0 -0.25 0  0.05000000000000004 -0.25 0  0.09999999999999998 -0.25 0  0.15 -0.25 0  0.2 -0.25 0  0.25 -0.25 0  0.3 -0.25 0  0.35 -0.25 0  0.4 -0.25 0  0.45 -0.25 0  0.5 -0.25 0  -0.5 -0.2 0  -0.45 -0.2 0  -0.4 -0.2 0  -0.35 -0.2 0  -0.3 -0.2 0  -0.25 -0.2 0  -0.2 -0.2 0  -0.15 -0.2 0  -0.09999999999999998 -0.2 0  -0.04999999999999999 -0.2 0  0 -0.2 0  0.05000000000000004 -0.2 0  0.09999999999999998 -0.2 0  0.15 -0.2 0  0.2 -0.2 0  0.25 -0.2 0  0.3 -0.2 0  0.35 -0.2 0  0.4 -0.2 0  0.45 -0.2 0  0.5 -0.2 0  -0.5 -0.15 0  -0.45 -0.15 0  -0.4 -0.15 0  -0.35 -0.15 0  -0.3 -0.15 0  -0.25 -0.15 0  -0.2 -0.15 0  -0.15 -0.15 0  -0.09999999999999998 -0.15 0  -0.04999999999999999 -0.15 0  0 -0.15 0  0.05000000000000004 -0.15 0  0.09999999999999998 -0.15 0  0.15 -0.15 0  0.2 -0.15 0  0.25 -0.15 0  0.3 -0.15 0  0.35 -0.15 0  0.4 -0.15 0  0.45 -0.15 0  0.5 -0.15 0  -0.5 -0.09999999999999998 0  -0.45 -0.09999999999999998 0  -0.4 -0.09999999999999998 0  -0.35 -0.09999999999999998 0  -0.3 -0.09999999999999998 0  -0.25 -0.09999999999999998 0  -0.2 -0.09999999999999998 0  -0.15 -0.09999999999999998 0  -0.09999999999999998 -0.09999999999999998 0  -0.04999999999999999 -0.09999999999999998 0  0 -0.09999999999999998 0  0.05000000000000004 -0.09999999999999998 0  0.09999999999999998 -0.09999999999999998 0  0.15 -0.09999999999999998 0  0.2 -0.09999999999999998 0  0.25 -0.09999999999999998 0  0.3 -0.09999999999999998 0  0.35 -0.09999999999999998 0  0.4 -0.09999999999999998 0  0.45 -0.09999999999999998 0  0.5 -0.09999999999999998 0  -0.5 -0.04999999999999999 0  -0.45 -0.04999999999999999 0  -0.4 -0.04999999999999999 0  -0.35 -0.04999999999999999 0  -0.3 -0.04999999999999999 0  -0.25 -0.04999999999999999 0  -0.2 -0.04999999999999999 0  -0.15 -0.04999999999999999 0  -0.09999999999999998 -0.04999999999999999 0  -0.04999999999999999 -0.04999999999999999 0  0 -0.04999999999999999 0  0.05000000000000004 -0.04999999999999999 0  0.09999999999999998 -0.04999999999999999 0  0.15 -0.04999999999999999 0  0.2 -0.04999999999999999 0  0.25 -0.04999999999999999 0  0.3 -0.04999999999999999 0  0.35 -0.04999999999999999 0  0.4 -0.04999999999999999 0  0.45 -0.04999999999999999 0  0.5 -0.04999999999999999 0  -0.5 0 0  -0.45 0 0  -0.4 0 0  -0.35 0 0  -0.3 0 0  -0.25 0 0  -0.2 0 0  -0.15 0 0  -0.09999999999999998 0 0  -0.04999999999999999 0 0  0 0 0  0.05000000000000004 0 0  0.09999999999999998 0 0  0.15 0 0  0.2 0 0  0.25 0 0  0.3 0 0  0.35 0 0  0.4 0 0  0.45 0 0  0.5 0 0  -0.5 0.05000000000000004 0  -0.45 0.05000000000000004 0  -0.4 0.05000000000000004 0  -0.35 0.05000000000000004 0  -0.3 0.05000000000000004 0  -0.25 0.05000000000000004 0  -0.2 0.05000000000000004 0  -0.15 0.05000000000000004 0  -0.09999999999999998 0.05000000000000004 0  -0.04999999999999999 0.05000000000000004 0  0 0.05000000000000004 0  0.05000000000000004 0.05000000000000004 0  0.09999999999999998 0.05000000000000004 0  0.15 0.05000000000000004 0  0.2 0.05000000000000004 0  0.25 0.05000000000000004 0  0.3 0.05000000000000004 0  0.35 0.05000000000000004 0  0.4 0.05000000000000004 0  0.45 0.05000000000000004 0  0.5 0.05000000000000004 0  -0.5 0.09999999999999998 0  -0.45 0.09999999999999998 0  -0.4 0.09999999999999998 0  -0.35 0.09999999999999998 0  -0.3 0.09999999999999998 0  -0.25 0.09999999999999998 0  -0.2 0.09999999999999998 0  -0.15 0.09999999999999998 0  -0.09999999999999998 0.09999999999999998 0  -0.04999999999999999 0.09999999999999998 0  0 0.09999999999999998 0  0.05000000000000004 0.09999999999999998 0  0.09999999999999998 0.09999999999999998 0  0.15 0.09999999999999998 0  0.2 0.09999999999999998 0  0.25 0.09999999999999998 0  0.3 0.09999999999999998 0  0.35 0.09999999999999998 0  0.4 0.09999999999999998 0  0.45 0.09999999999999998 0  0.5 0.09999999999999998 0  -0.5 0.15 0  -0.45 0.15 0  -0.4 0.15 0  -0.35 0.15 0  -0.3 0.15 0  -0.25 0.15 0  -0.2 0.15 0  -0.15 0.15 0  -0.09999999999999998 0.15 0  -0.04999999999999999 0.15 0  0 0.15 0  0.05000000000000004 0.15 0  0.09999999999999998 0.15 0  0.15 0.15 0  0.2 0.15 0  0.25 0.15 0  0.3 0.15 0  0.35 0.15 0  0.4 0.15 0  0.45 0.15 0  0.5 0.15 0  -0.5 0.2 0  -0.45 0.2 0  -0.4 0.2 0  -0.35 0.2 0  -0.3 0.2 0  -0.25 0.2 0  -0.2 0.2 0  -0.15 0.2 0  -0.09999999999999998 0.2 0  -0.04999999999999999 0.2 0  0 0.2 0  0.05000000000000004 0.2 0  0.09999999999999998 0.2 0  0.15 0.2 0  0.2 0.2 0  0.25 0.2 0  0.3 0.2 0  0.35 0.2 0  0.4 0.2 0  0.45 0.2 0  0.5 0.2 0  -0.5 0.25 0  -0.45 0.25 0  -0.4 0.25 0  -0.35 0.25 0  -0.3 0.25 0  -0.25 0.25 0  -0.2 0.25 0  -0.15 0.25 0  -0.09999999999999998 0.25 0  -0.04999999999999999 0.25 0  0 0.25 0  0.05000000000000004 0.25 0  0.09999999999999998 0.25 0  0.15 0.25 0  0.2 0.25 0  0.25 0.25 0  0.3 0.25 0  0.35 0.25 0  0.4 0.25 0  0.45 0.25 0  0.5 0.25 0  -0.5 0.3 0  -0.45 0.3 0  -0.4 0.3 0  -0.35 0.3 0  -0.3 0.3 0  -0.25 0.3 0  -0.2 0.3 0  -0.15 0.3 0  -0.09999999999999998 0.3 0  -0.04999999999999999 0.3 0  0 0.3 0  0.05000000000000004 0.3 0  0.09999999999999998 0.3 0  0.15 0.3 0  0.2 0.3 0  0.25 0.3 0  0.3 0.3 0  0.35 0.3 0  0.4 0.3 0  0.45 0.3 0  0.5 0.3 0  -0.5 0.35 0  -0.45 0.35 0  -0.4 0.35 0  -0.35 0.35 0  -0.3 0.35 0  -0.25 0.35 0  -0.2 0.35 0  -0.15 0.35 0  -0.09999999999999998 0.35 0  -0.04999999999999999 0.35 0  0 0.35 0  0.05000000000000004 0.35 0  0.09999999999999998 0.35 0  0.15 0.35 0  0.2 0.35 0  0.25 0.35 0  0.3 0.35 0  0.35 0.35 0  0.4 0.35 0  0.45 0.35 0  0.5 0.35 0  -0.5 0.4 0  -0.45 0.4 0  -0.4 0.4 0  -0.35 0.4 0  -0.3 0.4 0  -0.25 0.4 0  -0.2 0.4 0  -0.15 0.4 0  -0.09999999999999998 0.4 0  -0.04999999999999999 0.4 0  0 0.4 0  0.05000000000000004 0.4 0  0.09999999999999998 0.4 0  0.15 0.4 0  0.2 0.4 0  0.25 0.4 0  0.3 0.4 0  0.35 0.4 0  0.4 0.4 0  0.45 0.4 0  0.5 0.4 0  -0.5 0.45 0  -0.45 0.45 0  -0.4 0.45 0  -0.35 0.45 0  -0.3 0.45 0  -0.25 0.45 0  -0.2 0.45 0  -0.15 0.45 0  -0.09999999999999998 0.45 0  -0.04999999999999999 0.45 0  0 0.45 0  0.05000000000000004 0.45 0  0.09999999999999998 0.45 0  0.15 0.45 0  0.2 0.45 0  0.25 0.45 0  0.3 0.45 0  0.35 0.45 0  0.4 0.45 0  0.45 0.45 0  0.5 0.45 0  -0.5 0.5 0  -0.45 0.5 0  -0.4 0.5 0  -0.35 0.5 0  -0.3 0.5 0  -0.25 0.5 0  -0.2 0.5 0  -0.15 0.5 0  -0.09999999999999998 0.5 0  -0.04999999999999999 0.5 0  0 0.5 0  0.05000000000000004 0.5 0  0.09999999999999998 0.5 0  0.15 0.5 0  0.2 0.5 0  0.25 0.5 0  0.3 0.5 0  0.35 0.5 0  0.4 0.5 0  0.45 0.5 0  0.5 0.5 0  </DataArray>
</Points>
<Cells>
[...]
<PointData  Scalars="f_18-2"> 
<DataArray  type="Float64"  Name="f_18-2"  format="ascii">1.3586578466956695e-01  1.3586578466952032e-01  1.3586578466948232e-01  1.3586578466955734e-01  1.3586578466970156e-01  1.3586578466966584e-01  1.3586578466939908e-01  1.3586578466927077e-01  1.3586578466948851e-01  1.3586578466970523e-01  1.3586578466966190e-01  1.3586578466957441e-01  1.3586578466956650e-01  1.3586578466953042e-01  1.3586578466951099e-01  1.3586578466954385e-01  1.3586578466954494e-01  1.3586578466954513e-01  1.3586578466954508e-01  1.3586578466954505e-01  1.3586578466954499e-01  1.3586578466950960e-01  1.3586578466950530e-01  1.3586578466956459e-01  1.3586578466969759e-01  1.3586578466964996e-01  1.3586578466929919e-01  1.3586578466910906e-01  1.3586578466954249e-01  1.3586578467008717e-01  1.3586578466994620e-01  1.3586578466944652e-01  1.3586578466934146e-01  1.3586578466945221e-01  1.3586578466943242e-01  1.3586578466950108e-01  1.3586578466960519e-01  1.3586578466955104e-01  1.3586578466954732e-01  1.3586578466954538e-01  1.3586578466954521e-01  1.3586578466954505e-01  1.3586578466944554e-01  1.3586578466957444e-01  1.3586578466978599e-01  1.3586578466969129e-01  1.3586578466896601e-01  1.3586578466853622e-01  1.3586578466979737e-01  1.3586578467166852e-01  1.3586578467110230e-01  1.3586578466833477e-01  1.3586578466730190e-01  1.3586578466883273e-01  1.3586578466978932e-01  1.3586578466965193e-01  1.3586578467001806e-01  1.3586578467003294e-01  1.3586578466940660e-01  1.3586578466953420e-01  1.3586578466953808e-01  1.3586578466954452e-01  1.3586578466954485e-01  1.3586578466961485e-01  1.3586578466980340e-01  1.3586578466970500e-01  1.3586578466861246e-01  1.3586578466788027e-01  1.3586578467049007e-01  1.3586578467497409e-01  1.3586578467329780e-01  1.3586578466347499e-01  1.3586578465840130e-01  1.3586578466698132e-01  1.3586578467661953e-01  1.3586578467511401e-01  1.3586578467112465e-01  1.3586578467147964e-01  1.3586578466932531e-01  1.3586578466691582e-01  1.3586578466969240e-01  1.3586578466951063e-01  1.3586578466954705e-01  1.3586578466954294e-01  1.3586578467003302e-01  1.3586578466970337e-01  1.3586578466844337e-01  1.3586578466743079e-01  1.3586578467140453e-01  1.3586578467938948e-01  1.3586578467580918e-01  1.3586578465129201e-01  1.3586578463549931e-01  1.3586578466631152e-01  1.3586578471438823e-01  1.3586578471123625e-01  1.3586578466708760e-01  1.3586578465142246e-01  1.3586578466115201e-01  1.3586578465461524e-01  1.3586578465776486e-01  1.3586578467894569e-01  1.3586578466985352e-01  1.3586578466975868e-01  1.3586578466959387e-01  1.3586578466983293e-01  1.3586578466864599e-01  1.3586578466741678e-01  1.3586578467186686e-01  1.3586578468270655e-01  1.3586578467745380e-01  1.3586578463285159e-01  1.3586578459831439e-01  1.3586578467649632e-01  1.3586578483034803e-01  1.3586578483219214e-01  1.3586578461145238e-01  1.3586578445601308e-01  1.3586578455266041e-01  1.3586578466636642e-01  1.3586578465289967e-01  1.3586578470397206e-01  1.3586578476759958e-01  1.3586578465009971e-01  1.3586578466805296e-01  1.3586578466947419e-01  1.3586578466831928e-01  1.3586578466790727e-01  1.3586578467147031e-01  1.3586578468279620e-01  1.3586578467793206e-01  1.3586578461789020e-01  1.3586578456120879e-01  1.3586578470420124e-01  1.3586578504831381e-01  1.3586578507227756e-01  1.3586578436047725e-01  1.3586578363547558e-01  1.3586578402139268e-01  1.3586578507019406e-01  1.3586578533182167e-01  1.3586578496313725e-01  1.3586578505475941e-01  1.3586578496914320e-01  1.3586578421896614e-01  1.3586578466050872e-01  1.3586578467176880e-01  1.3586578466742430e-01  1.3586578467049740e-01  1.3586578467966862e-01  1.3586578467749630e-01  1.3586578461752888e-01  1.3586578454515991e-01  1.3586578473265215e-01  1.3586578529157411e-01  1.3586578536562754e-01  1.3586578375936015e-01  1.3586578163576218e-01  1.3586578267195434e-01  1.3586578736056207e-01  1.3586579003916335e-01  1.3586578717262335e-01  1.3586578390245968e-01  1.3586578419735110e-01  1.3586578324093412e-01  1.3586578093130819e-01  1.3586578570381039e-01  1.3586578489301820e-01  1.3586578467018376e-01  1.3586578467513014e-01  1.3586578467598717e-01  1.3586578463186461e-01  1.3586578455977652e-01  1.3586578473294850e-01  1.3586578540312264e-01  1.3586578556739190e-01  1.3586578297897878e-01  1.3586577868139016e-01  1.3586578071794222e-01  1.3586579428468828e-01  1.3586580599755838e-01  1.3586579547596694e-01  1.3586577058828009e-01  1.3586576270433343e-01  1.3586577371612865e-01  1.3586577461177693e-01  1.3586577435748939e-01  1.3586580438178303e-01  1.3586578635464372e-01  1.3586578467441690e-01  1.3586578467349825e-01  1.3586578465000090e-01  1.3586578459536353e-01  1.3586578470454763e-01  1.3586578529897145e-01  1.3586578557346513e-01  1.3586578259746088e-01  1.3586577633423721e-01  1.3586577909695613e-01  1.3586580628408168e-01  1.3586583769696337e-01  1.3586581139394935e-01  1.3586571299143180e-01  1.3586564663478271e-01  1.3586570817422502e-01  1.3586581229350161e-01  1.3586582627699428e-01  1.3586583766693419e-01  1.3586594877511660e-01  1.3586575259496178e-01  1.3586578467309585e-01  1.3586578466263138e-01  1.3586578463202234e-01  1.3586578467637012e-01  1.3586578506290509e-01  1.3586578538699012e-01  1.3586578297132970e-01  1.3586577629529523e-01  1.3586577848255066e-01  1.3586581679549392e-01  1.3586587415050327e-01  1.3586582751874596e-01  1.3586557427823334e-01  1.3586531871435173e-01  1.3586549909408371e-01  1.3586613203997405e-01  1.3586655102020653e-01  1.3586636060063101e-01  1.3586618992091423e-01  1.3586634557372029e-01  1.3586495352914665e-01  1.3586578466592183e-01  1.3586578465616622e-01  1.3586578466605220e-01  1.3586578484717943e-01  1.3586578510585412e-01  1.3586578374502087e-01  1.3586577854709672e-01  1.3586577894419688e-01  1.3586581683312754e-01  1.3586589101979510e-01  1.3586583573515276e-01  1.3586539109985485e-01  1.3586478303506050e-01  1.3586514420947618e-01  1.3586732125215181e-01  1.3586978752855031e-01  1.3586949728355099e-01  1.3586628344529639e-01  1.3586390577438981e-01  1.3586320484413472e-01  1.3585617422515328e-01  1.3586578466280402e-01  1.3586578466695129e-01  1.3586578472665678e-01  1.3586578486230000e-01  1.3586578434089516e-01  1.3586578142220679e-01  1.3586578039252042e-01  1.3586580644345814e-01  1.3586587519699048e-01  1.3586583670204494e-01  1.3586530096314048e-01  1.3586433111187954e-01  1.3586481339066567e-01  1.3586971181790861e-01  1.3587763393452026e-01  1.3587870285865591e-01  1.3586331183105343e-01  1.3583807877553020e-01  1.3582220582189389e-01  1.3581766391338188e-01  1.3579186982440500e-01  1.3586578466827237e-01  1.3586578468216629e-01  1.3586578472730068e-01  1.3586578459253346e-01  1.3586578343531974e-01  1.3586578230912019e-01  1.3586579462491860e-01  1.3586584008230942e-01  1.3586583082837331e-01  1.3586539045837334e-01  1.3586432515801203e-01  1.3586467929791157e-01  1.3587200308891226e-01  1.3588804121978471e-01  1.3589368684487194e-01  1.3584751566296735e-01  1.3572938333918899e-01  1.3559009523880297e-01  1.3551506504299721e-01  1.3550817256329711e-01  1.3544323307127637e-01  1.3586578467324595e-01  1.3586578468004906e-01  1.3586578465543775e-01  1.3586578434184282e-01  1.3586578379558073e-01  1.3586578779205444e-01  1.3586580894593506e-01  1.3586581624335162e-01  1.3586557144406960e-01  1.3586476009130069e-01  1.3586478135569877e-01  1.3587199795740079e-01  1.3589320160411716e-01  1.3590609611101753e-01  1.3581601548229674e-01  1.3548312054400055e-01  1.3489034670483338e-01  1.3428563963698573e-01  1.3400300418013508e-01  1.3405200225074390e-01  1.3397795636575527e-01  1.3586578467138385e-01  1.3586578466679686e-01  1.3586578461260243e-01  1.3586578447775224e-01  1.3586578539688379e-01  1.3586579216520481e-01  1.3586579922193853e-01  1.3586570724585745e-01  1.3586527906300899e-01  1.3586507402114228e-01  1.3586970344679122e-01  1.3588820143662880e-01  1.3590631235662420e-01  1.3579734024106724e-01  1.3522355087596799e-01  1.3377473920718463e-01  1.3151809375906051e-01  1.2938109765584940e-01  1.2848965026337875e-01  1.2888962466027362e-01  1.2912211456644204e-01  1.3586578466884583e-01  1.3586578466432950e-01  1.3586578465146434e-01  1.3586578481061420e-01  1.3586578621832371e-01  1.3586578859623749e-01  1.3586576436121237e-01  1.3586560832399477e-01  1.3586542260016718e-01  1.3586734078869128e-01  1.3587806486646120e-01  1.3589459221854783e-01  1.3581662904664560e-01  1.3522318453641449e-01  1.3316105476598147e-01  1.2859557376587466e-01  1.2194288786134287e-01  1.1592227809078871e-01  1.1356924234274444e-01  1.1507848567297801e-01  1.1660927761558841e-01  1.3586578466951535e-01  1.3586578467005811e-01  1.3586578468793020e-01  1.3586578484310780e-01  1.3586578509022634e-01  1.3586578015743472e-01  1.3586574175681543e-01  1.3586566692165103e-01  1.3586619914848916e-01  1.3587040398081890e-01  1.3588029306243460e-01  1.3584898415633812e-01  1.3548111322508072e-01  1.3376864061855837e-01  1.2859312683358476e-01  1.1788770116309374e-01  1.0312813838759334e-01  9.0426673732221796e-02  8.5573506050294387e-02  8.8878394741076103e-02  9.2934280338025338e-02  1.3586578466951618e-01  1.3586578466951646e-01  1.3586578467010982e-01  1.3586578463428506e-01  1.3586578390782239e-01  1.3586577844500677e-01  1.3586576686402210e-01  1.3586588790909207e-01  1.3586704960308252e-01  1.3587091167360499e-01  1.3586455909778444e-01  1.3572401469229758e-01  1.3486778270368180e-01  1.3148357208419933e-01  1.2193652124260027e-01  1.0316730079201478e-01  7.8970255733017164e-02  5.9756852909073108e-02  5.2615471913014814e-02  5.6977640692774729e-02  6.3052317039659980e-02  1.3586578466954216e-01  1.3586578466955157e-01  1.3586578466975319e-01  1.3586578466400867e-01  1.3586578462507440e-01  1.3586578601871166e-01  1.3586581300330808e-01  1.3586603573407033e-01  1.3586691378718055e-01  1.3586602661712949e-01  1.3582941916753510e-01  1.3555153016274554e-01  1.3419181691050855e-01  1.2926539854405444e-01  1.1593389791537692e-01  9.0645912269574969e-02  5.9965786786108997e-02  3.7721703234381489e-02  2.9909246661654919e-02  3.3951577826655380e-02  4.0144568441145480e-02  1.3586578466954397e-01  1.3586578466954660e-01  1.3586578466966800e-01  1.3586578466987276e-01  1.3586578468503321e-01  1.3586578522167050e-01  1.3586579000084906e-01  1.3586577213077258e-01  1.3586495969130283e-01  1.3585539684880105e-01  1.3578440365598635e-01  1.3539797887193622e-01  1.3376139710854873e-01  1.2825459868916370e-01  1.1383276858634593e-01  8.6591412278166885e-02  5.3577320723561868e-02  3.0314087792920625e-02  2.2476928374886115e-02  2.5910482326962938e-02  3.1715462605943656e-02  </DataArray> 
</PointData> 
</Piece>
</UnstructuredGrid>
</VTKFile>