<?xml version="1.0"?>
<VTKFile type="UnstructuredGrid"  version="0.1"  >
<UnstructuredGrid>
<Piece  NumberOfPoints="441" NumberOfCells="800">
<Points>
<DataArray  type="Float64"  NumberOfComponents="3"  format="ascii">-0.5 -0.5 0  -0.45 -0.5 0  -0.4 -0.5 0  -0.35 -0.5 0  -0.3 -0.5 0  -0.25 -0.5 0  -0.2 -0.5 0  -0.15 -0.5 0  -0.09999999999999998 -0.5 0  -0.04999999999999999 -0.5 0  0 -0.5 0  0.05000000000000004 -0.5 0  0.09999999999999998 -0.5 0  0.15 -0.5 0  0.2 -0.5 0  0.25 -0.5 0  0.3 -0.5 0  0.35 -0.5 0  0.4 -0.5 0  0.45 -0.5 0  0.5 -0.5 0  -0.5 -0.45 0  -0.45 -0.45 0  -0.4 -0.45 0  -0.35 -0.45 0  -0.3 -0.45 0  -0.25 -0.45 0  -0.2 -0.45 0  -0.15 -0.45 0  -0.09999999999999998 -0.45 0  -0.04999999999999999 -0.45 0  0 -0.45 0  0.05000000000000004 -0.45 0  0.09999999999999998 -0.45 0  0.15 -0.45 0  0.2 -0.45 0  0.25 -0.45 0  0.3 -0.45 0  0.35 -0.45 0  0.4 -0.45 0  0.45 -0.45 0  0.5 -0.45 0  -0.5 -0.4 0  -0.45 -0.4 0  -0.4 -0.4 0  -0.35 -0.4 0  -0.3 -0.4 0  -0.25 -0.4 0  -0.2 -0.4 0  -0.15 -0.4 0  -0.09999999999999998 -0.4 0  -0.04999999999999999 -0.4 0  0 -0.4 0  0.05000000000000004 -0.4 0  0.09999999999999998 -0.4 0  0.15 -0.4 0  0.2 -0.4 0  0.25 -0.4 0  0.3 -0.4 0  0.35 -0.4 0  0.4 -0.4 0  0.45 -0.4 0  0.5 -0.4 0  -0.5 -0.35 0  -0.45 -0.35 0  -0.4 -0.35 0  -0.35 -0.35 0  -0.3 -0.35 0  -0.25 -0.35 0  -0.2 -0.35 0  -0.15 -0.35 0  -0.09999999999999998 -0.35 0  -0.04999999999999999 -0.35 0  0 -0.35 0  0.05000000000000004 -0.35 0  0.09999999999999998 -0.35 0  0.15 -0.35 0  0.2 -0.35 0  0.25 -0.35 0  0.3 -0.35 0  0.35 -0.35 0  0.4 -0.35 0  0.45 -0.35 0  0.5 -0.35 0  -0.5 -0.3 0  -0.45 -0.3 0  -0.4 -0.3 0  -0.35 -0.3 0  -0.3 -0.3 0  -0.25 -0.3 0  -0.2 -0.3 0  -0.15 -0.3 0  -0.09999999999999998 -0.3 0  -0.04999999999999999 -0.3 0  0 -0.3 0  0.05000000000000004 -0.3 0  0.09999999999999998 -0.3 0  0.15 -0.3 0  0.2 -0.3 0  0.25 -0.3 0  0.3 -0.3 0  0.35 -0.3 0  0.4 -0.3 0  0.45 -0.3 0  0.5 -0.3 0  -0.5 -0.25 0  -0.45 -0.25 0  -0.4 -0.25 0  -0.35 -0.25 0  -0.3 -0.25 0  -0.25 -0.25 0  -0.2 -0.25 0  -0.15 -0.25 0  -0.09999999999999998 -0.25 0  -0.04999999999999999 -0.25 0  0 -0.25 0  0.05000000000000004 -0.25 0  0.09999999999999998 -0.25 0  0.15 -0.25 0  0.2 -0.25 0  0.25 -0.25 0  0.3 -0.25 0  0.35 -0.25 0  0.4 -0.25 0  0.45 -0.25 0  0.5 -0.25 0  -0.5 -0.2 0  -0.45 -0.2 0  -0.4 -0.2 0  -0.35 -0.2 0  -0.3 -0.2 0  -0.25 -0.2 0  -0.2 -0.2 0  -0.15 -0.2 0  -0.09999999999999998 -0.2 0  -0.04999999999999999 -0.2 0  0 -0.2 0  0.05000000000000004 -0.2 0  0.09999999999999998 -0.2 0  0.15 -0.2 0  0.2 -0.2 0  0.25 -0.2 0  0.3 -0.2 0  0.35 -0.2 0  0.4 -0.2 0  0.45 -0.2 0  0.5 -0.2 0  -0.5 -0.15 0  -0.45 -0.15 0  -0.4 -0.15 0  -0.35 -0.15 0  -0.3 -0.15 0  -0.25 -0.15 0  -0.2 -0.15 0  -0.15 -0.15 0  -0.09999999999999998 -0.15 0  -0.04999999999999999 -0.15 0  0 -0.15 0  0.05000000000000004 -0.15 0  0.09999999999999998 -0.15 0  0.15 -0.15 0  0.2 -0.15 0  0.25 -0.15 0  0.3 -0.15 0  0.35 -0.15 0  0.4 -0.15 0  0.45 -0.15 0  0.5 -0.15 0  -0.5 -0.09999999999999998 0  -0.45 -0.09999999999999998 0  -0.4 -0.09999999999999998 0  -0.35 -0.09999999999999998 0  -0.3 -0.09999999999999998 0  -0.25 -0.09999999999999998 0  -0.2 -0.09999999999999998 0  -0.15 -0.09999999999999998 0  -0.09999999999999998 -0.09999999999999998 0  -0.04999999999999999 -0.09999999999999998 0  0 -0.09999999999999998 0  0.05000000000000004 -0.09999999999999998 0  0.09999999999999998 -0.09999999999999998 0  0.15 -0.09999999999999998 0  0.2 -0.09999999999999998 0  0.25 -0.09999999999999998 0  0.3 -0.09999999999999998 0  0.35 -0.09999999999999998 0  0.4 -0.09999999999999998 0  0.45 -0.09999999999999998 0  0.5 -0.09999999999999998 0  -0.5 -0.04999999999999999 0  -0.45 -0.04999999999999999 0  -0.4 -0.04999999999999999 0  -0.35 -0.04999999999999999 0  -0.3 -0.04999999999999999 0  -0.25 -0.04999999999999999 0  -0.2 -0.04999999999999999 0  -0.15 -0.04999999999999999 0  -0.09999999999999998 -0.04999999999999999 0  -0.04999999999999999 -0.04999999999999999 0  0 -0.04999999999999999 0  0.05000000000000004 -0.04999999999999999 0  0.09999999999999998 -0.04999999999999999 0  0.15 -0.04999999999999999 0  0.2 -0.04999999999999999 0  0.25 -0.04999999999999999 0  0.3 -0.04999999999999999 0  0.35 -0.04999999999999999 0  0.4 -0.04999999999999999 0  0.45 -0.04999999999999999 0  0.5 -0.04999999999999999 0  -0.5 0 0  -0.45 0 0  -0.4 0 0  -0.35 0 0  -0.3 0 0  -0.25 0 0  -0.2 0 0  -0.15 0 0  -0.09999999999999998 0 0  -0.04999999999999999 0 0  0 0 0  0.05000000000000004 0 0  0.09999999999999998 0 0  0.15 0 0  0.2 0 0  0.25 0 0  0.3 0 0  0.35 0 0  0.4 0 0  0.45 0 0  0.5 0 0  -0.5 0.05000000000000004 0  -0.45 0.05000000000000004 0  -0.4 0.05000000000000004 0  -0.35 0.05000000000000004 0  -0.3 0.05000000000000004 0  -0.25 0.05000000000000004 0  -0.2 0.05000000000000004 0  -0.15 0.05000000000000004 0  -0.09999999999999998 0.05000000000000004 0  -0.04999999999999999 0.05000000000000004 0  0 0.05000000000000004 0  0.05000000000000004 0.05000000000000004 0  0.09999999999999998 0.05000000000000004 0  0.15 0.05000000000000004 0  0.2 0.05000000000000004 0  0.25 0.05000000000000004 0  0.3 0.05000000000000004 0  0.35 0.05000000000000004 0  0.4 0.05000000000000004 0  0.45 0.05000000000000004 0  0.5 0.05000000000000004 0  -0.5 0.09999999999999998 0  -0.45 0.09999999999999998 0  -0.4 0.09999999999999998 0  -0.35 0.09999999999999998 0  -0.3 0.09999999999999998 0  -0.25 0.09999999999999998 0  -0.2 0.09999999999999998 0  -0.15 0.09999999999999998 0  -0.09999999999999998 0.09999999999999998 0  -0.04999999999999999 0.09999999999999998 0  0 0.09999999999999998 0  0.05000000000000004 0.09999999999999998 0  0.09999999999999998 0.09999999999999998 0  0.15 0.09999999999999998 0  0.2 0.09999999999999998 0  0.25 0.09999999999999998 0  0.3 0.09999999999999998 0  0.35 0.09999999999999998 0  0.4 0.09999999999999998 0  0.45 0.09999999999999998 0  0.5 0.09999999999999998 0  -0.5 0.15 0  -0.45 0.15 0  -0.4 0.15 0  -0.35 0.15 0  -0.3 0.15 0  -0.25 0.15 0  -0.2 0.15 0  -0.15 0.15 0  -0.09999999999999998 0.15 0  -0.04999999999999999 0.15 0  0 0.15 0  0.05000000000000004 0.15 0  0.09999999999999998 0.15 0  0.15 0.15 0  0.2 0.15 0  0.25 0.15 0  0.3 0.15 0  0.35 0.15 0  0.4 0.15 0  0.45 0.15 0  0.5 0.15 0  -0.5 0.2 0  -0.45 0.2 0  -0.4 0.2 0  -0.35 0.2 0  -0.3 0.2 0  -0.25 0.2 0  -0.2 0.2 0  -0.15 0.2 0  -0.09999999999999998 0.2 0  -0.04999999999999999 0.2 0  0 0.2 0  0.05000000000000004 0.2 0  0.09999999999999998 0.2 0  0.15 0.2 0  0.2 0.2 0  0.25 0.2 0  0.3 0.2 0  0.35 0.2 0  0.4 0.2 0  0.45 0.2 0  0.5 0.2 0  -0.5 0.25 0  -0.45 0.25 0  -0.4 0.25 0  -0.35 0.25 0  -0.3 0.25 0  -0.25 0.25 0  -0.2 0.25 0  -0.15 0.25 0  -0.09999999999999998 0.25 0  -0.04999999999999999 0.25 0  0 0.25 0  0.05000000000000004 0.25 0  0.09999999999999998 0.25 0  0.15 0.25 0  0.2 0.25 0  0.25 0.25 0  0.3 0.25 0  0.35 0.25 0  0.4 0.25 0  0.45 0.25 0  0.5 0.25 0  -0.5 0.3 0  -0.45 0.3 0  -0.4 0.3 0  -0.35 0.3 0  -0.3 0.3 0  -0.25 0.3 0  -0.2 0.3 0  -0.15 0.3 0  -0.09999999999999998 0.3 0  -0.04999999999999999 0.3 0  0 0.3 0  0.05000000000000004 0.3 0  0.09999999999999998 0.3 0  0.15 0.3 0  0.2 0.3 0  0.25 0.3 0  0.3 0.3 0  0.35 0.3 0  0.4 0.3 0  0.45 0.3 0  0.5 0.3 0  -0.5 0.35 0  -0.45 0.35 0  -0.4 0.35 0  -0.35 0.35 0  -0.3 0.35 0  -0.25 0.35 0  -0.2 0.35 0  -0.15 0.35 0  -0.09999999999999998 0.35 0  -0.04999999999999999 0.35 0  0 0.35 0  0.05000000000000004 0.35 0  0.09999999999999998 0.35 0  0.15 0.35 0  0.2 0.35 0  0.25 0.35 0  0.3 0.35 0  0.35 0.35 0  0.4 0.35 0  0.45 0.35 0  0.5 0.35 0  -0.5 0.4 0  -0.45 0.4 0  -0.4 0.4 0  -0.35 0.4 0  -0.3 0.4 0  -0.25 0.4 0  -0.2 0.4 0  -0.15 0.4 0  -0.09999999999999998 0.4 0  -0.04999999999999999 0.4 0  0 0.4 0  0.05000000000000004 0.4 0  0.09999999999999998 0.4 0  0.15 0.4 0  0.2 0.4 0  0.25 0.4 0  0.3 0.4 0  0.35 0.4 0  0.4 0.4 0  0.45 0.4 0  0.5 0.4 0  -0.5 0.45 0  -0.45 0.45 0  -0.4 0.45 0  -0.35 0.45 0  -0.3 0.45 0  -0.25 0.45 0  -0.2 0.45 0  -0.15 0.45 0  -0.09999999999999998 0.45 0  -0.04999999999999999 0.45 0  0 0.45 0  0.05000000000000004 0.45 0  0.09999999999999998 0.45 0  0.15 0.45 0  0.2 0.45 0  0.25 0.45 0  0.3 0.45 0  0.35 0.45 0  0.4 0.45 0  0.45 0.45 0  0.5 0.45 0  -0.5 0.5 0  -0.45 0.5 0  -0.4 0.5 0  -0.35 0.5 0  -0.3 0.5 0  -0.25 0.5 0  -0.2 0.5 0  -0.15 0.5 0  -0.09999999999999998 0.5 0  -0.04999999999999999 0.5 0  0 0.5 0  0.05000000000000004 0.5 0  0.09999999999999998 0.5 0  0.15 0.5 0  0.2 0.5 0  0.25 0.5 0  0.3 0.5 0  0.35 0.5 0  0.4 0.5 0  0.45 0.5 0  0.5 0.5 0  </DataArray>
</Points>
<Cells>
[...]
<PointData  Scalars="f_18-2"> 
<DataArray  type="Float64"  Name="f_18-2"  format="ascii">2.0022514827513838e-01  2.0022514827721383e-01  2.0022514828199550e-01  2.0022514828695626e-01  2.0022514828395552e-01  2.0022514826507093e-01  2.0022514823602977e-01  2.0022514822319845e-01  2.0022514825728041e-01  2.0022514833909191e-01  2.0022514842250813e-01  2.0022514844411377e-01  2.0022514837809172e-01  2.0022514825652421e-01  2.0022514813183198e-01  2.0022514803470554e-01  2.0022514798736074e-01  2.0022514803967961e-01  2.0022514823165613e-01  2.0022514847161271e-01  2.0022514847594913e-01  2.0022514827736407e-01  2.0022514827990387e-01  2.0022514828400706e-01  2.0022514828273075e-01  2.0022514826745866e-01  2.0022514823960372e-01  2.0022514822374141e-01  2.0022514825979415e-01  2.0022514836332042e-01  2.0022514848361836e-01  2.0022514851635481e-01  2.0022514838636571e-01  2.0022514812868372e-01  2.0022514787192236e-01  2.0022514773167352e-01  2.0022514774112857e-01  2.0022514790185200e-01  2.0022514824970211e-01  2.0022514876064471e-01  2.0022514913095557e-01  2.0022514872760205e-01  2.0022514828405674e-01  2.0022514828537932e-01  2.0022514828224036e-01  2.0022514825965892e-01  2.0022514821758322e-01  2.0022514819606427e-01  2.0022514827234378e-01  2.0022514849085771e-01  2.0022514875482636e-01  2.0022514880281059e-01  2.0022514837957953e-01  2.0022514751652309e-01  2.0022514663568938e-01  2.0022514628636856e-01  2.0022514672588385e-01  2.0022514780200235e-01  2.0022514925398704e-01  2.0022515093661644e-01  2.0022515245005770e-01  2.0022515248612127e-01  2.0022514891757459e-01  2.0022514829299301e-01  2.0022514828481577e-01  2.0022514825583509e-01  2.0022514819906481e-01  2.0022514816605064e-01  2.0022514828557536e-01  2.0022514866722355e-01  2.0022514917561038e-01  2.0022514927049140e-01  2.0022514824528265e-01  2.0022514593717158e-01  2.0022514336409086e-01  2.0022514244251929e-01  2.0022514464447053e-01  2.0022514972897310e-01  2.0022515595240650e-01  2.0022516156790490e-01  2.0022516557119130e-01  2.0022516623143738e-01  2.0022515902814134e-01  2.0022513754483393e-01  2.0022514828776847e-01  2.0022514825935767e-01  2.0022514819269019e-01  2.0022514814739459e-01  2.0022514830002344e-01  2.0022514885361495e-01  2.0022514967411564e-01  2.0022514985359446e-01  2.0022514785508955e-01  2.0022514283790724e-01  2.0022513663472813e-01  2.0022513434494282e-01  2.0022514165465843e-01  2.0022515993942874e-01  2.0022518357528474e-01  2.0022520302699487e-01  2.0022521117485101e-01  2.0022520533458271e-01  2.0022518129230663e-01  2.0022512642338633e-01  2.0022502379121340e-01  2.0022514824141635e-01  2.0022514819918694e-01  2.0022514814759215e-01  2.0022514830649157e-01  2.0022514897812888e-01  2.0022515009601999e-01  2.0022515041067071e-01  2.0022514723071808e-01  2.0022513825927371e-01  2.0022512587866487e-01  2.0022512079065224e-01  2.0022513920311627e-01  2.0022519088727311e-01  2.0022526512849131e-01  2.0022532891438521e-01  2.0022534440056189e-01  2.0022529207721412e-01  2.0022517405706294e-01  2.0022498968098998e-01  2.0022471125189975e-01  2.0022429885794929e-01  2.0022514815294204e-01  2.0022514815213738e-01  2.0022514829892521e-01  2.0022514898289773e-01  2.0022515027197021e-01  2.0022515076373326e-01  2.0022514661662141e-01  2.0022513333712050e-01  2.0022511278877247e-01  2.0022510296570992e-01  2.0022513968211639e-01  2.0022525686040199e-01  2.0022544661222375e-01  2.0022562766880445e-01  2.0022566279651380e-01  2.0022543302867998e-01  2.0022491288349489e-01  2.0022416550898128e-01  2.0022324572580116e-01  2.0022211255128505e-01  2.0022067678497096e-01  2.0022514810436398e-01  2.0022514825564636e-01  2.0022514886061121e-01  2.0022515012496747e-01  2.0022515078719350e-01  2.0022514635551431e-01  2.0022513002649117e-01  2.0022510155020518e-01  2.0022508527981281e-01  2.0022514416416601e-01  2.0022535981306280e-01  2.0022575474804608e-01  2.0022618206894768e-01  2.0022627664359605e-01  2.0022557155183796e-01  2.0022376612411616e-01  2.0022094710654298e-01  2.0021751852194325e-01  2.0021383669782319e-01  2.0020989962791363e-01  2.0020549026338524e-01  2.0022514826307458e-01  2.0022514865186364e-01  2.0022514971375766e-01  2.0022515047171296e-01  2.0022514660987470e-01  2.0022512990546898e-01  2.0022509686354484e-01  2.0022507389181959e-01  2.0022515018483342e-01  2.0022547455590792e-01  2.0022614681317771e-01  2.0022697587347538e-01  2.0022721787565706e-01  2.0022556716285822e-01  2.0022064591477332e-01  2.0021187028545204e-01  2.0020005391261197e-01  2.0018703418462766e-01  2.0017438428359696e-01  2.0016234936712074e-01  2.0015026328453281e-01  2.0022514873985206e-01  2.0022514924045143e-01  2.0022514992744522e-01  2.0022514721159593e-01  2.0022513300175310e-01  2.0022510086166967e-01  2.0022507336457451e-01  2.0022515303208896e-01  2.0022555327783162e-01  2.0022649299273954e-01  2.0022781431340073e-01  2.0022833223474823e-01  2.0022528884422364e-01  2.0021463787884428e-01  2.0019272261702056e-01  2.0015886012685322e-01  2.0011691923344968e-01  2.0007382882300884e-01  2.0003531484549800e-01  2.0000240754626158e-01  1.9997262109012845e-01  2.0022514934014382e-01  2.0022514944663916e-01  2.0022514783416845e-01  2.0022513778907236e-01  2.0022511159027995e-01  2.0022508384679735e-01  2.0022515028638671e-01  2.0022555599912409e-01  2.0022663797507381e-01  2.0022837188213027e-01  2.0022926958114518e-01  2.0022479486156131e-01  2.0020633700743470e-01  2.0016256097696258e-01  2.0008445232886482e-01  1.9997259928927741e-01  1.9984130950426607e-01  1.9971358477029894e-01  1.9960780509622303e-01  1.9952669517550481e-01  1.9946053060286839e-01  2.0022514946108388e-01  2.0022514839356789e-01  2.0022514238018754e-01  2.0022512448406379e-01  2.0022510103000396e-01  2.0022514442503600e-01  2.0022548214774327e-01  2.0022651016358761e-01  2.0022838852733160e-01  2.0022964761047932e-01  2.0022438156802108e-01  2.0019863027130161e-01  2.0012852551577937e-01  1.9998457164271127e-01  1.9974538752304594e-01  1.9941743008915716e-01  1.9904616280617943e-01  1.9870112413244889e-01  1.9843632524539798e-01  1.9825644988490293e-01  1.9812491152848316e-01  2.0022514842686512e-01  2.0022514569644051e-01  2.0022513541737333e-01  2.0022511887394592e-01  2.0022514014604376e-01  2.0022537057377204e-01  2.0022617723467448e-01  2.0022786059025569e-01  2.0022929748716548e-01  2.0022435021718873e-01  2.0019533558261116e-01  2.0010505734435999e-01  1.9989315377337288e-01  1.9948689160770719e-01  1.9883557975689778e-01  1.9796259253028237e-01  1.9699763192220573e-01  1.9613685050585472e-01  1.9552963643936394e-01  1.9517741511972153e-01  1.9495086061390568e-01  2.0022514620325654e-01  2.0022514242770573e-01  2.0022513287739133e-01  2.0022513983573165e-01  2.0022526829989262e-01  2.0022579104586530e-01  2.0022704068565469e-01  2.0022838166208906e-01  2.0022470705188844e-01  2.0019826937026747e-01  2.0010452844738966e-01  1.9985490684711305e-01  1.9930793520475976e-01  1.9829123395500695e-01  1.9668087537012846e-01  1.9453604169656230e-01  1.9219760173646250e-01  1.9019168311255613e-01  1.8891604973182807e-01  1.8834373454649497e-01  1.8804662532539845e-01  2.0022514390091023e-01  2.0022514120016666e-01  2.0022514229769944e-01  2.0022520063712529e-01  2.0022548027858872e-01  2.0022624905455602e-01  2.0022727521893519e-01  2.0022516140627486e-01  2.0020568162667715e-01  2.0012701152066326e-01  1.9989097187205201e-01  1.9930625160007914e-01  1.9806331436129013e-01  1.9576701839602764e-01  1.9210368390156507e-01  1.8718509427768659e-01  1.8185307469192094e-01  1.7745748575470502e-01  1.7501711487357141e-01  1.7440193678765864e-01  1.7430676810512444e-01  2.0022514337425548e-01  2.0022514465913982e-01  2.0022516663120302e-01  2.0022529013446455e-01  2.0022568184294828e-01  2.0022632545076702e-01  2.0022542332500551e-01  2.0021382445676186e-01  2.0016033318590115e-01  1.9998043483376321e-01  1.9948173199762423e-01  1.9828809870606737e-01  1.9576875804831784e-01  1.9105685792215207e-01  1.8337606602572545e-01  1.7291046963502366e-01  1.6165051982726877e-01  1.5277569133597782e-01  1.4858834449412811e-01  1.4870000354359217e-01  1.4970250826984793e-01  2.0022514589481846e-01  2.0022515307083125e-01  2.0022519841439115e-01  2.0022536340486571e-01  2.0022569272241242e-01  2.0022543560670494e-01  2.0021984961370837e-01  2.0019027182650265e-01  2.0007913420464912e-01  1.9973714048454486e-01  1.9882805249487776e-01  1.9668310637225919e-01  1.9212536409977604e-01  1.8341022526276385e-01  1.6888135571554486e-01  1.4908545611345561e-01  1.2852681390032100e-01  1.1336848831254899e-01  1.0722648008309880e-01  1.0910711104436413e-01  1.1240805897135335e-01  2.0022515082729719e-01  2.0022516292943390e-01  2.0022522000313464e-01  2.0022535592777743e-01  2.0022532408793353e-01  2.0022313134231515e-01  2.0020973431051928e-01  2.0015362212864571e-01  1.9996304125774733e-01  1.9940594396178521e-01  1.9796064955314191e-01  1.9456774161399706e-01  1.8727770731384086e-01  1.7306022405638247e-01  1.4921923714365015e-01  1.1794479664554511e-01  8.8300084838742396e-02  6.8822750461299528e-02  6.1876865409256243e-02  6.5085037124513148e-02  7.0089698829720798e-02  2.0022515549189154e-01  2.0022516813703378e-01  2.0022521183927744e-01  2.0022521858360778e-01  2.0022449774758364e-01  2.0021945284632353e-01  2.0019601108594587e-01  2.0010854802803935e-01  1.9982916569353731e-01  1.9903995705162816e-01  1.9702705003802382e-01  1.9231933578564123e-01  1.8213232281591318e-01  1.6208602350843881e-01  1.2895742608942734e-01  8.8521845621335346e-02  5.5038737322385983e-02  3.6206735554201543e-02  3.0290936468479548e-02  3.3285383301484846e-02  3.7885507346129464e-02  2.0022515658030601e-01  2.0022516339529944e-01  2.0022516420376305e-01  2.0022495172766178e-01  2.0022332623700173e-01  2.0021506833423344e-01  2.0018146519106769e-01  2.0006476367612328e-01  1.9970764213266187e-01  1.9872510394296200e-01  1.9625782170214853e-01  1.9053168984097141e-01  1.7816618866486827e-01  1.5387907730330716e-01  1.1450764426341235e-01  6.9480895430390308e-02  3.6378570027869393e-02  2.0314300711080927e-02  1.5885697050216096e-02  1.8153028079289715e-02  2.1681776211072822e-02  2.0022515228334520e-01  2.0022514767303823e-01  2.0022508469702810e-01  2.0022461465681857e-01  2.0022209224863743e-01  2.0021106504622599e-01  2.0016974068861232e-01  2.0003330265113523e-01  1.9962931845866036e-01  1.9854237566009028e-01  1.9585630127757503e-01  1.8970572080406908e-01  1.7661226192006446e-01  1.5123661441248976e-01  1.1026936115480575e-01  6.3626872469865092e-02  3.0530010213659229e-02  1.5732804744763105e-02  1.2096558511296930e-02  1.3984130195467752e-02  1.7050470889316233e-02  </DataArray> 
</PointData> 
</Piece>
</UnstructuredGrid>
</VTKFile>