<?xml version="1.0"?>
<VTKFile type="UnstructuredGrid"  version="0.1"  >
<UnstructuredGrid>
<Piece  NumberOfPoints="961" NumberOfCells="1800">
<Points>
<DataArray  type="Float64"  NumberOfComponents="3"  format="ascii">0 0 0  0.03333333333333333 0 0  0.06666666666666667 0 0  0.1 0 0  0.1333333333333333 0 0  0.1666666666666667 0 0  0.2 0 0  0.2333333333333333 0 0  0.2666666666666667 0 0  0.3 0 0  0.3333333333333333 0 0  0.3666666666666666 0 0  0.4 0 0  0.4333333333333333 0 0  0.4666666666666667 0 0  0.5 0 0  0.5333333333333333 0 0  0.5666666666666667 0 0  0.6 0 0  0.6333333333333333 0 0  0.6666666666666666 0 0  0.7 0 0  0.7333333333333333 0 0  0.7666666666666667 0 0  0.8 0 0  0.8333333333333334 0 0  0.8666666666666667 0 0  0.9 0 0  0.9333333333333333 0 0  0.9666666666666667 0 0  1 0 0  0 0.03333333333333333 0  0.03333333333333333 0.03333333333333333 0  0.06666666666666667 0.03333333333333333 0  0.1 0.03333333333333333 0  0.1333333333333333 0.03333333333333333 0  0.1666666666666667 0.03333333333333333 0  0.2 0.03333333333333333 0  0.2333333333333333 0.03333333333333333 0  0.2666666666666667 0.03333333333333333 0  0.3 0.03333333333333333 0  0.3333333333333333 0.03333333333333333 0  0.3666666666666666 0.03333333333333333 0  0.4 0.03333333333333333 0  0.4333333333333333 0.03333333333333333 0  0.4666666666666667 0.03333333333333333 0  0.5 0.03333333333333333 0  0.5333333333333333 0.03333333333333333 0  0.5666666666666667 0.03333333333333333 0  0.6 0.03333333333333333 0  0.6333333333333333 0.03333333333333333 0  0.6666666666666666 0.03333333333333333 0  0.7 0.03333333333333333 0  0.7333333333333333 0.03333333333333333 0  0.7666666666666667 0.03333333333333333 0  0.8 0.03333333333333333 0  0.8333333333333334 0.03333333333333333 0  0.8666666666666667 0.03333333333333333 0  0.9 0.03333333333333333 0  0.9333333333333333 0.03333333333333333 0  0.9666666666666667 0.03333333333333333 0  1 0.03333333333333333 0  0 0.06666666666666667 0  0.03333333333333333 0.06666666666666667 0  0.06666666666666667 0.06666666666666667 0  0.1 0.06666666666666667 0  0.1333333333333333 0.06666666666666667 0  0.1666666666666667 0.06666666666666667 0  0.2 0.06666666666666667 0  0.2333333333333333 0.06666666666666667 0  0.2666666666666667 0.06666666666666667 0  0.3 0.06666666666666667 0  0.3333333333333333 0.06666666666666667 0  0.3666666666666666 0.06666666666666667 0  0.4 0.06666666666666667 0  0.4333333333333333 0.06666666666666667 0  0.4666666666666667 0.06666666666666667 0  0.5 0.06666666666666667 0  0.5333333333333333 0.06666666666666667 0  0.5666666666666667 0.06666666666666667 0  0.6 0.06666666666666667 0  0.6333333333333333 0.06666666666666667 0  0.6666666666666666 0.06666666666666667 0  0.7 0.06666666666666667 0  0.7333333333333333 0.06666666666666667 0  0.7666666666666667 0.06666666666666667 0  0.8 0.06666666666666667 0  0.8333333333333334 0.06666666666666667 0  0.8666666666666667 0.06666666666666667 0  0.9 0.06666666666666667 0  0.9333333333333333 0.06666666666666667 0  0.9666666666666667 0.06666666666666667 0  1 0.06666666666666667 0  0 0.1 0  0.03333333333333333 0.1 0  0.06666666666666667 0.1 0  0.1 0.1 0  0.1333333333333333 0.1 0  0.1666666666666667 0.1 0  0.2 0.1 0  0.2333333333333333 0.1 0  0.2666666666666667 0.1 0  0.3 0.1 0  0.3333333333333333 0.1 0  0.3666666666666666 0.1 0  0.4 0.1 0  0.4333333333333333 0.1 0  0.4666666666666667 0.1 0  0.5 0.1 0  0.5333333333333333 0.1 0  0.5666666666666667 0.1 0  0.6 0.1 0  0.6333333333333333 0.1 0  0.6666666666666666 0.1 0  0.7 0.1 0  0.7333333333333333 0.1 0  0.7666666666666667 0.1 0  0.8 0.1 0  0.8333333333333334 0.1 0  0.8666666666666667 0.1 0  0.9 0.1 0  0.9333333333333333 0.1 0  0.9666666666666667 0.1 0  1 0.1 0  0 0.1333333333333333 0  0.03333333333333333 0.1333333333333333 0  0.06666666666666667 0.1333333333333333 0  0.1 0.1333333333333333 0  0.1333333333333333 0.1333333333333333 0  0.1666666666666667 0.1333333333333333 0  0.2 0.1333333333333333 0  0.2333333333333333 0.1333333333333333 0  0.2666666666666667 0.1333333333333333 0  0.3 0.1333333333333333 0  0.3333333333333333 0.1333333333333333 0  0.3666666666666666 0.1333333333333333 0  0.4 0.1333333333333333 0  0.4333333333333333 0.1333333333333333 0  0.4666666666666667 0.1333333333333333 0  0.5 0.1333333333333333 0  0.5333333333333333 0.1333333333333333 0  0.5666666666666667 0.1333333333333333 0  0.6 0.1333333333333333 0  0.6333333333333333 0.1333333333333333 0  0.6666666666666666 0.1333333333333333 0  0.7 0.1333333333333333 0  0.7333333333333333 0.1333333333333333 0  0.7666666666666667 0.1333333333333333 0  0.8 0.1333333333333333 0  0.8333333333333334 0.1333333333333333 0  0.8666666666666667 0.1333333333333333 0  0.9 0.1333333333333333 0  0.9333333333333333 0.1333333333333333 0  0.9666666666666667 0.1333333333333333 0  1 0.1333333333333333 0  0 0.1666666666666667 0  0.03333333333333333 0.1666666666666667 0  0.06666666666666667 0.1666666666666667 0  0.1 0.1666666666666667 0  0.1333333333333333 0.1666666666666667 0  0.1666666666666667 0.1666666666666667 0  0.2 0.1666666666666667 0  0.2333333333333333 0.1666666666666667 0  0.2666666666666667 0.1666666666666667 0  0.3 0.1666666666666667 0  0.3333333333333333 0.1666666666666667 0  0.3666666666666666 0.1666666666666667 0  0.4 0.1666666666666667 0  0.4333333333333333 0.1666666666666667 0  0.4666666666666667 0.1666666666666667 0  0.5 0.1666666666666667 0  0.5333333333333333 0.1666666666666667 0  0.5666666666666667 0.1666666666666667 0  0.6 0.1666666666666667 0  0.6333333333333333 0.1666666666666667 0  0.6666666666666666 0.1666666666666667 0  0.7 0.1666666666666667 0  0.7333333333333333 0.1666666666666667 0  0.7666666666666667 0.1666666666666667 0  0.8 0.1666666666666667 0  0.8333333333333334 0.1666666666666667 0  0.8666666666666667 0.1666666666666667 0  0.9 0.1666666666666667 0  0.9333333333333333 0.1666666666666667 0  0.9666666666666667 0.1666666666666667 0  1 0.1666666666666667 0  0 0.2 0  0.03333333333333333 0.2 0  0.06666666666666667 0.2 0  0.1 0.2 0  0.1333333333333333 0.2 0  0.1666666666666667 0.2 0  0.2 0.2 0  0.2333333333333333 0.2 0  0.2666666666666667 0.2 0  0.3 0.2 0  0.3333333333333333 0.2 0  0.3666666666666666 0.2 0  0.4 0.2 0  0.4333333333333333 0.2 0  0.4666666666666667 0.2 0  0.5 0.2 0  0.5333333333333333 0.2 0  0.5666666666666667 0.2 0  0.6 0.2 0  0.6333333333333333 0.2 0  0.6666666666666666 0.2 0  0.7 0.2 0  0.7333333333333333 0.2 0  0.7666666666666667 0.2 0  0.8 0.2 0  0.8333333333333334 0.2 0  0.8666666666666667 0.2 0  0.9 0.2 0  0.9333333333333333 0.2 0  0.9666666666666667 0.2 0  1 0.2 0  0 0.2333333333333333 0  0.03333333333333333 0.2333333333333333 0  0.06666666666666667 0.2333333333333333 0  0.1 0.2333333333333333 0  0.1333333333333333 0.2333333333333333 0  0.1666666666666667 0.2333333333333333 0  0.2 0.2333333333333333 0  0.2333333333333333 0.2333333333333333 0  0.2666666666666667 0.2333333333333333 0  0.3 0.2333333333333333 0  0.3333333333333333 0.2333333333333333 0  0.3666666666666666 0.2333333333333333 0  0.4 0.2333333333333333 0  0.4333333333333333 0.2333333333333333 0  0.4666666666666667 0.2333333333333333 0  0.5 0.2333333333333333 0  0.5333333333333333 0.2333333333333333 0  0.5666666666666667 0.2333333333333333 0  0.6 0.2333333333333333 0  0.6333333333333333 0.2333333333333333 0  0.6666666666666666 0.2333333333333333 0  0.7 0.2333333333333333 0  0.7333333333333333 0.2333333333333333 0  0.7666666666666667 0.2333333333333333 0  0.8 0.2333333333333333 0  0.8333333333333334 0.2333333333333333 0  0.8666666666666667 0.2333333333333333 0  0.9 0.2333333333333333 0  0.9333333333333333 0.2333333333333333 0  0.9666666666666667 0.2333333333333333 0  1 0.2333333333333333 0  0 0.2666666666666667 0  0.03333333333333333 0.2666666666666667 0  0.06666666666666667 0.2666666666666667 0  0.1 0.2666666666666667 0  0.1333333333333333 0.2666666666666667 0  0.1666666666666667 0.2666666666666667 0  0.2 0.2666666666666667 0  0.2333333333333333 0.2666666666666667 0  0.2666666666666667 0.2666666666666667 0  0.3 0.2666666666666667 0  0.3333333333333333 0.2666666666666667 0  0.3666666666666666 0.2666666666666667 0  0.4 0.2666666666666667 0  0.4333333333333333 0.2666666666666667 0  0.4666666666666667 0.2666666666666667 0  0.5 0.2666666666666667 0  0.5333333333333333 0.2666666666666667 0  0.5666666666666667 0.2666666666666667 0  0.6 0.2666666666666667 0  0.6333333333333333 0.2666666666666667 0  0.6666666666666666 0.2666666666666667 0  0.7 0.2666666666666667 0  0.7333333333333333 0.2666666666666667 0  0.7666666666666667 0.2666666666666667 0  0.8 0.2666666666666667 0  0.8333333333333334 0.2666666666666667 0  0.8666666666666667 0.2666666666666667 0  0.9 0.2666666666666667 0  0.9333333333333333 0.2666666666666667 0  0.9666666666666667 0.2666666666666667 0  1 0.2666666666666667 0  0 0.3 0  0.03333333333333333 0.3 0  0.06666666666666667 0.3 0  0.1 0.3 0  0.1333333333333333 0.3 0  0.1666666666666667 0.3 0  0.2 0.3 0  0.2333333333333333 0.3 0  0.2666666666666667 0.3 0  0.3 0.3 0  0.3333333333333333 0.3 0  0.3666666666666666 0.3 0  0.4 0.3 0  0.4333333333333333 0.3 0  0.4666666666666667 0.3 0  0.5 0.3 0  0.5333333333333333 0.3 0  0.5666666666666667 0.3 0  0.6 0.3 0  0.6333333333333333 0.3 0  0.6666666666666666 0.3 0  0.7 0.3 0  0.7333333333333333 0.3 0  0.7666666666666667 0.3 0  0.8 0.3 0  0.8333333333333334 0.3 0  0.8666666666666667 0.3 0  0.9 0.3 0  0.9333333333333333 0.3 0  0.9666666666666667 0.3 0  1 0.3 0  0 0.3333333333333333 0  0.03333333333333333 0.3333333333333333 0  0.06666666666666667 0.3333333333333333 0  0.1 0.3333333333333333 0  0.1333333333333333 0.3333333333333333 0  0.1666666666666667 0.3333333333333333 0  0.2 0.3333333333333333 0  0.2333333333333333 0.3333333333333333 0  0.2666666666666667 0.3333333333333333 0  0.3 0.3333333333333333 0  0.3333333333333333 0.3333333333333333 0  0.3666666666666666 0.3333333333333333 0  0.4 0.3333333333333333 0  0.4333333333333333 0.3333333333333333 0  0.4666666666666667 0.3333333333333333 0  0.5 0.3333333333333333 0  0.5333333333333333 0.33333333333333
[...]
<PointData  Scalars="f_18-2"> 
<DataArray  type="Float64"  Name="f_18-2"  format="ascii">1.7680599458408516e-01  1.7680471629850208e-01  1.7680135303450251e-01  1.7679444739596178e-01  1.7678216945857927e-01  1.7676262800454343e-01  1.7673450765309354e-01  1.7669787009795151e-01  1.7665483390498457e-01  1.7660976952077648e-01  1.7656873750751978e-01  1.7653818111168887e-01  1.7652324643326803e-01  1.7652634195528377e-01  1.7654650174644612e-01  1.7657978478963546e-01  1.7662050347305397e-01  1.7666276385985397e-01  1.7670176181862093e-01  1.7673448543380946e-01  1.7675977416200644e-01  1.7677791850532407e-01  1.7679007128366916e-01  1.7679769913783280e-01  1.7680219823357138e-01  1.7680469692397366e-01  1.7680600540997982e-01  1.7680665186237035e-01  1.7680695200834864e-01  1.7680707743436766e-01  1.7680710367374966e-01  1.7680437836175167e-01  1.7680261101384934e-01  1.7679747547459046e-01  1.7678716737720127e-01  1.7676927613985202e-01  1.7674133701185604e-01  1.7670172198670950e-01  1.7665071935358770e-01  1.7659142871509856e-01  1.7652998375805892e-01  1.7647473900364419e-01  1.7643444695074789e-01  1.7641595202636201e-01  1.7642225198761974e-01  1.7645169798729129e-01  1.7649862921768991e-01  1.7655512368058054e-01  1.7661312827572700e-01  1.7666620212128509e-01  1.7671041463781489e-01  1.7674436171850449e-01  1.7676857546107541e-01  1.7678470564821888e-01  1.7679477877414851e-01  1.7680069166343243e-01  1.7680396033828394e-01  1.7680566419814903e-01  1.7680650200142164e-01  1.7680688895736066e-01  1.7680705020830309e-01  1.7680708977065232e-01  1.7679910589165879e-01  1.7679527169755763e-01  1.7678410006873130e-01  1.7676219152289846e-01  1.7672503704533224e-01  1.7666810268194247e-01  1.7658855726254466e-01  1.7648734485708376e-01  1.7637088702605330e-01  1.7625146450916884e-01  1.7614555585891895e-01  1.7607018614057071e-01  1.7603835557574973e-01  1.7605527560395506e-01  1.7611695333325073e-01  1.7621166102869618e-01  1.7632356401299229e-01  1.7643696556875910e-01  1.7653964014638129e-01  1.7662441314219915e-01  1.7668901134162748e-01  1.7673479657047761e-01  1.7676514114911826e-01  1.7678401738088423e-01  1.7679506802066083e-01  1.7680116782606120e-01  1.7680434647418874e-01  1.7680591069586249e-01  1.7680663449983960e-01  1.7680693724663610e-01  1.7680701261306456e-01  1.7678611856581070e-01  1.7677771591268160e-01  1.7675301529530027e-01  1.7670524123138948e-01  1.7662536200237972e-01  1.7650432435249125e-01  1.7633660778522126e-01  1.7612451864824599e-01  1.7588177003054378e-01  1.7563432566179887e-01  1.7541689139527894e-01  1.7526509882583399e-01  1.7520570225039941e-01  1.7524860632427927e-01  1.7538410454090922e-01  1.7558640871708980e-01  1.7582171341289907e-01  1.7605730400870678e-01  1.7626840120473655e-01  1.7644109078718312e-01  1.7657161354959919e-01  1.7666347334508617e-01  1.7672399414688669e-01  1.7676146150845706e-01  1.7678331492324145e-01  1.7679534588517598e-01  1.7680160490395155e-01  1.7680468254271192e-01  1.7680610642752345e-01  1.7680670223566222e-01  1.7680685193528534e-01  1.7675808692324610e-01  1.7674074919006280e-01  1.7668913094869673e-01  1.7659004820469340e-01  1.7642565848695585e-01  1.7617788645112750e-01  1.7583555075388291e-01  1.7540319168511670e-01  1.7490872754391970e-01  1.7440561938456953e-01  1.7396580271059872e-01  1.7366318073180259e-01  1.7355265449481458e-01  1.7365316207024892e-01  1.7394221460875797e-01  1.7436414448851673e-01  1.7484788088855299e-01  1.7532634630216207e-01  1.7575032048319464e-01  1.7609361358497289e-01  1.7635067987645664e-01  1.7653011654640538e-01  1.7664750092286319e-01  1.7671973983595748e-01  1.7676166945528918e-01  1.7678466377996196e-01  1.7679659084214847e-01  1.7680244245145410e-01  1.7680514505260439e-01  1.7680627448748285e-01  1.7680656090655575e-01  1.7670334770514551e-01  1.7666981838776438e-01  1.7656863494924521e-01  1.7637503701884788e-01  1.7605476439919227e-01  1.7557228411074663e-01  1.7490446935620427e-01  1.7405831951188655e-01  1.7308733555699221e-01  1.7209740132740908e-01  1.7123338386168296e-01  1.7064511588646195e-01  1.7044325844234295e-01  1.7066365889965646e-01  1.7125658199955807e-01  1.7210533143140760e-01  1.7306461174277635e-01  1.7400101917442001e-01  1.7482034072567817e-01  1.7547585907826413e-01  1.7596137954624683e-01  1.7629700033563009e-01  1.7651471807295246e-01  1.7664775221502468e-01  1.7672451417764207e-01  1.7676640797684934e-01  1.7678805376603979e-01  1.7679864036766288e-01  1.7680351715225037e-01  1.7680555103804388e-01  1.7680607098830495e-01  1.7660561526680985e-01  1.7654469508703580e-01  1.7635836073437697e-01  1.7600176848397811e-01  1.7541111080907359e-01  1.7451782473971697e-01  1.7327360239146408e-01  1.7168506533881980e-01  1.6984860847000866e-01  1.6796610058972239e-01  1.6632074041614334e-01  1.6520842187667842e-01  1.6484699577259587e-01  1.6530340061874321e-01  1.6647276714733386e-01  1.6811835125078503e-01  1.6995174308080446e-01  1.7171566079112413e-01  1.7323656370004353e-01  1.7443627903451037e-01  1.7531335215674021e-01  1.7591268213169395e-01  1.7629763371872895e-01  1.7653090037964703e-01  1.7666456934005331e-01  1.7673710735571366e-01  1.7677441264400631e-01  1.7679258837157644e-01  1.7680093406124545e-01  1.7680440574011450e-01  1.7680529918303739e-01  1.7644536872433123e-01  1.7634116595631130e-01  1.7601823562799970e-01  1.7539833035948874e-01  1.7436641737541156e-01  1.7279324240804553e-01  1.7057888745508171e-01  1.6771911969948755e-01  1.6437859011685912e-01  1.6092938771457113e-01  1.5790696302359741e-01  1.5587363810063029e-01  1.5524072117808901e-01  1.5612998706993694e-01  1.5833533242699302e-01  1.6139938518328042e-01  1.6477016114065157e-01  1.6796580609398098e-01  1.7067671982579344e-01  1.7278023439152645e-01  1.7429457382789543e-01  1.7531541687829041e-01  1.7596358178519486e-01  1.7635258893879910e-01  1.7657374462134198e-01  1.7669298253159305e-01  1.7675397854882796e-01  1.7678356501736528e-01  1.7679709864919305e-01  1.7680271135919129e-01  1.7680416359738665e-01  1.7620379730807900e-01  1.7603585846974210e-01  1.7550878952089030e-01  1.7449148253079944e-01  1.7278422620056022e-01  1.7015142711328499e-01  1.6639464063374099e-01  1.6147779441823457e-01  1.5567668094923026e-01  1.4965917953205701e-01  1.4439098474974515e-01  1.4086722849250138e-01  1.3979841673721713e-01  1.4139131970279456e-01  1.4529031315088661e-01  1.5069039070589116e-01  1.5659719367213629e-01  1.6213652730500228e-01  1.6676361221934116e-01  1.7029115011003115e-01  1.7278690571346489e-01  1.7444339227405289e-01  1.7548140660779979e-01  1.7609767933392759e-01  1.7644495879908995e-01  1.7663085306677070e-01  1.7672538428934056e-01  1.7677100926031766e-01  1.7679178982321672e-01  1.7680037811066415e-01  1.7680260972015041e-01  1.7586952533041877e-01  1.7561457132407335e-01  1.7480475227388631e-01  1.7323042874585351e-01  1.7056079142642430e-01  1.6638778308577662e-01  1.6034747357748841e-01  1.5235525844243020e-01  1.4289419826529290e-01  1.3313643168823908e-01  1.2469648655710054e-01  1.1912150511473113e-01  1.1744230234784897e-01  1.1995577696107060e-01  1.2617739753913015e-01  1.3491891707375095e-01  1.4457849030425776e-01  1.5364523080690753e-01  1.6115087078722459e-01  1.6678405121370943e-01  1.7069898888032453e-01  1.7325400542561928e-01  1.7483216148495082e-01  1.7575812723049758e-01  1.7627497001282566e-01  1.7654949433059547e-01  1.7668820617181627e-01  1.7675479315074216e-01  1.7678497825329059e-01  1.7679740506355554e-01  1.7680064463747416e-01  1.7544694940158523e-01  1.7508279176230240e-01  1.7391315213490041e-01  1.7162093520955582e-01  1.6768991434552460e-01  1.6146269816032024e-01  1.5234706114337646e-01  1.4025057127928042e-01  1.2608149474196678e-01  1.1181693564638849e-01  9.9857720711868464e-02  9.2162993810878446e-02  8.9837005645850593e-02  9.3179208194329233e-02  1.0175096092741416e-01  1.1425562260579422e-01  1.2856024820095144e-01  1.4228380548419481e-01  1.5370338831245195e-01  1.6220221978240917e-01  1.6801839171705432e-01  1.7175152433385515e-01  1.7402332874699511e-01  1.7534003285753735e-01  1.7606774263910691e-01  1.7645118448955796e-01  1.7664364684778536e-01  1.7673551115092723e-01  1.7677694504171199e-01  1.7679393094405160e-01  1.7679836972390825e-01  1.7496326010913485e-01  1.7447479324173168e-01  1.7289013346817708e-01  1.6976001211515757e-01  1.6433545610975583e-01  1.5564974745059845e-01  1.4287248632911587e-01  1.2606594655375436e-01  1.0692327678181764e-01  8.8507391782372810e-02  7.3860770864375772e-02  6.4838359654365602e-02  6.2111343199039382e-02  6.5797546398092502e-02  7.5754853370919514e-02  9.1161675675204654e-02  1.0988129790480501e-01  1.2870146548176972e-01  1.4475368761932911e-01  1.5674480385794456e-01  1.6487350753732372e-01  1.7001658665061201e-01  1.7310258862107039e-01  1.7486990845791722e-01  1.7583721850322928e-01  1.7634288962646705e-01  1.7659502303621843e-01  1.7671467230854263e-01  1.7676835435621116e-01  1.7679026217249727e-01  1.7679599683471142e-01  1.7447008789306789e-01  1.7385604241743277e-01  1.7184686313530151e-01  1.6785152532077335e-01  1.6086971717598797e-01  1.4961569789017706e-01  1.3309356123704982e-01  1.1177537995503921e-01  8.8479488253962790e-02  6.7383170626167471e-02  5.1705081763409544e-02  4.2584589973878845e-02  3.9860963829076682e-02  4.3334022803495242e-02  5.3269118763052105e-02  6.9768738874753197e-02  9.1409422535204801e-02  1.1462999619676398e-01  1.3527972232179439e-01  1.5096246806529248e-01  1.6157628745623723e-01  1.6822327727566019e-01  1.7216407108504947e-01  1.7439674632390692e-01  1.7560789311670161e-01  1.7623636348004529e-01  1.7654774219152405e-01  1.7669466220713234e-01  1.7676022547496775e-01  1.7678685466386451e-01  1.7679383278843247e-01  1.7403652158564253e-01  1.7331445708523374e-01  1.7093537832634847e-01  1.6618177461481312e-01  1.5782938879981362e-01  1.4432656559738563e-01  1.2462474941462094e-01  9.9780124119845229e-02  7.3794997957488173e-02  5.1669045166614379e-02  3.6325411915389953e-02  2.7926263587186303e-02  2.5468628916136882e-02  2.8451523568714068e-02  3.7473159913380814e-02  5.3548801690978975e-02  7.6303123232645403e-02  1.0242139837627365e-01  1.2677782104494917e-01  1.4572141842967368e-01  1.5860360148393479e-01  1.6662575640432473e-01  1.7133934133233961e-01  1.7398657801776327e-01  1.7541180629406961e-01  1.7614659085026418e-01  1.7650854060083213e-01  1.7667838727446436e-01  1.7675377186178959e-01  1.7678423712174479e-01  1.7679222511901396e-01  1.7373355799812965e-01  1.7294034783590995e-01  1.7031301414217781e-01  1.6505026633028161e-01  1.5577899878969301e-01  1.4077948307736371e-01  1.1901539564328451e-01  9.2041605072507401e-02  6.4727165010065854e-02  4.2507921548849657e-02  2.7890219735891401e-02  2.0263992954876780e-02  1.8064428297696614e-02  2.0604552459060000e-02  2.8672083607647714e-02  4.3868031613590201e-02  6.6647043163410455e-02  9.4160895321579965e-02  1.2081229541374279e-01  1.4199136399643539e-01  1.5649323555416328e-01  1.6550490646875740e-01  1.7076990333060207e-01  1.7370860058646084e-01  1.7528175406659272e-01  1.7608857794338470e-01  1.7648401944656517e-01  1.7666863092403298e-01  1.7675012536620180e-01  1.7678288660696323e-01  1.7679147780948909e-01  1.7361458066945604e-01  1.7280103789307136e-01  1.7009630863760836e-01  1.6467812467568160e-01  1.5513267655500054e-01  1.3968847243987229e-01  1.1730033614793675e-01  8.9666507015597210e-02  6.1945715332766445e-02  3.9733911991598370e-02  2.5389754436260004e-02  1.8026600788708942e-02  1.5886735573845671e-02  1.8222587368583995e-02  2.5877752720916438e-02  4.0635688503908814e-02  6.3246714710410018e-02  9.1102555080243258e-02  1.1852299781917547e-01  1.4054129404231408e-01  1.5568170215263075e-01  1.6508692533506725e-01  1.7056746619515450e-01  1.7361618368118012e-01  1.7524241568105747e-01  1.7607331881624402e-01  1.7647886855841413e-01  1.7666729804267112e-01  1.7675002363739351e-01  1.7678309300449835e-01  1.7679176257717930e-01  1.7369945691991001e-01  1.7292028609855559e-01  1.7032368521185909e-01  1.6513433097490929e-01  1.5601496294211423e-01  1.4126475974622310e-01  1.1978233846544148e-01  9.2958406995520798e-02  6.5566170648884953e-02  4.3136433990679367e-02  2.8306628599197400e-02  2.0507577258217998e-02  1.8167443138968238e-02  2.0591300886947151e-02  2.8552871631003243e-02  4.3620139780733189e-02  6.6238103770112217e-02  9.3644639073709610e-02  1.2034545104952377e-01  1.4169033888034327e-01  1.5635451669436204e-01  1.6546669241891124e-01  1.7077726068372917e-01  1.7372985532490859e-01  1.7530265018773458e-01  1.7610440141942243e-01  1.7649441995248388e-01  1.7667482186411251e-01  1.7675357540957243e-01  1.7678486313984207e-01  1.7679305959675465e-01  1.7396898879995293e-01  1.7327147934360307e-01  1.7094393967029259e-01  1.6631418399015929e-01  1.5822157717475802e-01  1.4515698658783802e-01  1.2598445883380222e-01  1.0148821768844002e-01  7.5452275186039822e-02  5.2976751150030671e-02  3.7223612359626124e-02  2.8470627027420554e-02  2.5721168848884077e-02  2.8453556972649476e-02  3.7229443561815942e-02  5.3015319178436555e-02  7.5463562091365025e-02  1.0143704023885865e-01  1.2594278834381539e-01  1.4520812393005833e-01  1.5837829317289023e-01  1.6657213660776540e-01  1.7136130733748806e-01  1.7402984726746595e-01  1.7545229957416134e-01  1.7617669544113215e-01  1.7652813993678240e-01  1.7668998290441401e-01  1.7676020354172620e-01  1.7678790635333685e-01  1.7679515423003109e-01  1.7437189094717148e-01  1.7378733086669049e-01  1.7183534332274394e-01  1.6797909640484085e-01  1.6129521237615099e-01  1.5056245084008429e-01  1.3472534091482494e-01  1.1397422585310116e-01  9.0804315827771515e-02  6.9377257381122340e-02  5.3165059222919461e-02  4.3513398711462183e-02  4.0319526089596894e-02  4.3362360638830984e-02  5.2860525994811627e-02  6.8899874582534743e-02  9.0170827735944273e-02  1.1332855224359523e-01  1.3427099950412491e-01  1.5038536738431854e-01  1.6134506946095917e-01  1.6818768960617325e-01  1.7221019784773514e-01  1.7446193964747739e-01  1.7566507403152026e-01  1.7627776570662185e-01  1.7657431257740666e-01  1.7671023393457680e-01  1.7676879827147601e-01  1.7679171206668287e-01  1.7679769457647199e-01  1.7484082560503120e-01  1.7438120615046449e-01  1.7284550463869042e-01  1.6983729425293498e-01  1.6468194696004249e-01  1.5648559630340109e-01  1.4440466274913469e-01  1.2829461350712801e-01  1.0951518799908475e-01  9.0962758109361663e-02  7.5812136674080530e-02  6.6145449966361791e-02  6.2763372934775241e-02  6.5810232755128414e-02  7.5144408254083250e-02  9.0009662124216613e-02  1.0843929563914433e-01  1.2735984453258198e-01  1.4381304055592928e-01  1.5625515144026916e-01  1.6470963288658899e-01  1.7002609977964636e-01  1.7317816694033900e-01  1.7495413673962673e-01  1.7590635587614412e-01  1.7639146260870953e-01  1.7662565688825838e-01  1.7673241088310115e-01  1.7677802462964762e-01  1.7679569100997197e-01  1.7680028880076984e-01  1.7531055464353701e-01  1.7497067623694090e-01  1.7383377254983376e-01  1.7162758572192044e-01  1.6789664774614202e-01  1.6204778133580186e-01  1.5350534640670077e-01  1.4206418646076940e-01  1.2838250750593122e-01  1.1421070817985657e-01  1.0192134177795886e-01  9.3613208385687041e-02  9.0549170913957588e-02  9.3137889906628094e-02  1.0103582707455044e-01  1.1307645837815018e-01  1.2725664333806774e-01  1.4120024685025151e-01  1.5301914411792825e-01  1.6189366105920078e-01  1.6795893145132362e-01  1.7181505145812162e-01  1.7412541696669045e-01  1.7543685127589698e-01  1.7614262934789052e-01  1.7650222435252155e-01  1.7667523464271306e-01  1.7675355220604885e-01  1.7678666546529384e-01  1.7679932595384476e-01  1.7680260499479755e-01  1.7573161051426153e-01  1.7549464453437311e-01  1.7470015501014566e-01  1.7317302997381270e-01  1.7062635196685788e-01  1.6669877683401255e-01  1.6104887033755227e-01  1.5354236290133053e-01  1.4451479844649232e-01  1.3495372826434954e-01  1.2637116239259655e-01  1.2034878799579658e-01  1.1804208542545314e-01  1.1989796268660748e-01  1.2558011214091802e-01  1.3402588853901237e-01  1.4368383950441002e-01  1.5297428477710956e-01  1.6078158837782691e-01  1.6666822523544769e-01  1.7073878733797071e-01  1.7336145676875189e-01  1.7495025808519510e-01  1.7585859926778857e-01  1.7634892172216174e-01  1.7659848479159770e-01  1.7671795061976320e-01  1.7677153117578756e-01  1.7679387756403250e-01  1.7680227843539520e-01  1.7680443825168438e-01  1.7607617295141711e-01  1.7592005104335623e-01  1.7539447549512666e-01  1.7439325910651643e-01  1.7274600745693203e-01  1.7024721840636561e-01  1.6671559395686267e-01  1.6209503742994449e-01  1.5658596491978230e-01  1.5074394629038859e-01  1.4544486993296038e-01  1.4167147155380472e-01  1.4020580356575038e-01  1.4137554224414151e-01  1.4494893293016042e-01  1.5020254936263575e-01  1.5614781161363403e-01  1.6184363247101655e-01  1.6665235833448777e-01  1.7032030366770448e-01  1.7289347883365180e-01  1.7457362130112011e-01  1.7560159358532365e-01  1.7619264500523130e-01  1.7651211016042334e-01  1.7667421168640632e-01  1.7675121984775533e-01  1.7678532385001558e-01  1.7679929023884383e-01  1.7680442282082418e-01  1.7680572746955073e-01  1.7633668001578195e-01  1.7623930510862407e-01  1.7590941014721592e-01  1.7528597142423219e-01  1.7427278045773195e-01  1.7275905737245442e-01  1.7065609436609955e-01  1.6795214563560790e-01  1.6477648741590409e-01  1.6144384589536701e-01  1.5843660189455241e-01  1.5630024633659942e-01  1.5547912285346574e-01  1.5616352631495728e-01  1.5821871226488787e-01  1.6122852913926761e-01  1.6463623877328429e-01  1.6791975039446341e-01  1.7072176857346200e-01  1.7288833408960361e-01  1.7442901036286054e-01  1.7544626220266116e-01  1.7607327000609962e-01  1.7643490277306520e-01  1.7663009970024174e-01  1.7672854496401963e-01  1.7677478654087378e-01  1.7679491071812947e-01  1.7680294994748830e-01  1.7680581258600686e-01  1.7680652727407403e-01  1.7652007290533392e-01  1.7646250220916260e-01  1.7626568356800057e-01  1.7589627690302426e-01  1.7530235758561560e-01  1.7442674932284774e-01  1.7322863005187211e-01  1.7171287197773777e-01  1.6996078232562653e-01  1.6814807465878875e-01  1.6653191098423289e-01  1.6539724046243814e-01  1.6497426284328476e-01  1.6536012367805611e-01  1.6648186070127388e-01  1.6811978360692828e-01  1.6998105858462290e-01  1.7178889942567838e-01  1.7334836349485674e-01  1.7456821215806675e-01  1.7544469394115436e-01  1.7602781288456604e-01  1.7638863908375266e-01  1.7659668644690105e-01  1.7670843057541955e-01  1.7676421773571838e-01  1.7678999615777474e-01  1.7680094565046708e-01  1.7680517081551478e-01  1.7680660806047432e-01  1.7680695630318108e-01  1.7664092749570035e-01  1.7660863511740854e-01  1.7649688572174360e-01  1.7628833969442884e-01  1.7595613781357505e-01  1.7547188852608123e-01  1.7481775191627066e-01  1.7400164548107805e-01  1.7307170573750000e-01  1.7212299438913339e-01  1.7128865801886745e-01  1.7071223730736959e-01  1.7050735469937595e-01  1.7072024440118966e-01  1.7131242534043656e-01  1.7217253049559603e-01  1.7315218719409656e-01  1.7410943880209973e-01  1.7494155476870313e-01  1.7559746730771136e-01  1.7607164578002940e-01  1.7638818769032139e-01  1.7658402467218304e-01  1.7669644109409294e-01  1.7675625239372472e-01  1.7678565152699982e-01  1.7679892198256775e-01  1.7680436862955579e-01  1.7680636741594569e-01  1.7680700069707941e-01  1.7680714595303607e-01  1.7671573724656744e-01  1.7669853622571929e-01  1.7663808344151627e-01  1.7652579074294372e-01  1.7634832697669806e-01  1.7609210755692598e-01  1.7574972502155994e-01  1.7532755765011751e-01  1.7485241261258949e-01  1.7437381851192998e-01  1.7395864816523732e-01  1.7367712239659519e-01  1.7358352360905155e-01  1.7369881976741983e-01  1.7400296593094183e-01  1.7444080034732637e-01  1.7493908602978148e-01  1.7542717215578374e-01  1.7585299733545623e-01  1.7618975114384791e-01  1.7643359355444660e-01  1.7659619100452578e-01  1.7669630601904135e-01  1.7675323688817