<?xml version="1.0"?>
<VTKFile type="UnstructuredGrid"  version="0.1"  >
<UnstructuredGrid>
<Piece  NumberOfPoints="3280" NumberOfCells="6365">
<Points>
<DataArray  type="Float64"  NumberOfComponents="3"  format="ascii">1.3 0 0  1.298383997584599 0.06479965135890632 0  1.293540007975022 0.1294382005745617 0  1.285480074092667 0.1937549460290268 0  1.274224234203107 0.2575899861592169 0  1.259800472097801 0.3207846169973817 0  1.242244647521983 0.3831817267341755 0  1.221600407021681 0.4446261863233694 0  1.19791907543153 0.5049652351571032 0  1.171259528273145 0.5640488608528256 0  1.141688045381297 0.6217301722077136 0  1.109278146121802 0.6778657643933474 0  1.074110406610793 0.7323160754827087 0  1.036272259389799 0.7849457334231206 0  0.9958577760546716 0.835623892592501 0  0.9529674333787743 0.8842245591021952 0  0.9077078635118947 0.930626904037634 0  0.8601915888759174 0.9747155638580545 0  0.8105367424163537 1.016380927208439 0  0.7588667739052269 1.055519407430613 0  0.7053101430254874 1.092033700096003 0  0.6499999999999999 1.12583302491977 0  0.593073854559112 1.156833351454909 0  0.5346732340697952 1.184957608005175 0  0.4749433316763135 1.210135873237466 0  0.4140326453271898 1.232305550017271 0  0.3520926085859066 1.251411521035016 0  0.2892772141432088 1.267406285836371 0  0.2257426309670096 1.28025007891587 0  0.1616468160417309 1.289910968580224 0  0.09714912166235169 1.296364936335534 0  0.03240989925949495 1.299595936601061 0  -0.03240989925949479 1.299595936601061 0  -0.09714912166235155 1.296364936335534 0  -0.1616468160417307 1.289910968580224 0  -0.2257426309670094 1.28025007891587 0  -0.2892772141432087 1.267406285836371 0  -0.3520926085859066 1.251411521035016 0  -0.4140326453271896 1.232305550017271 0  -0.4749433316763134 1.210135873237466 0  -0.5346732340697948 1.184957608005175 0  -0.5930738545591113 1.156833351454909 0  -0.6500000000000001 1.12583302491977 0  -0.7053101430254871 1.092033700096003 0  -0.7588667739052265 1.055519407430614 0  -0.8105367424163534 1.016380927208439 0  -0.860191588875917 0.9747155638580548 0  -0.9077078635118946 0.9306269040376342 0  -0.9529674333787743 0.8842245591021952 0  -0.9958577760546713 0.8356238925925014 0  -1.036272259389799 0.7849457334231206 0  -1.074110406610793 0.7323160754827088 0  -1.109278146121802 0.6778657643933476 0  -1.141688045381297 0.6217301722077135 0  -1.171259528273145 0.5640488608528257 0  -1.19791907543153 0.504965235157103 0  -1.221600407021681 0.4446261863233695 0  -1.242244647521983 0.383181726734176 0  -1.259800472097801 0.320784616997382 0  -1.274224234203107 0.2575899861592169 0  -1.285480074092667 0.1937549460290271 0  -1.293540007975022 0.1294382005745618 0  -1.298383997584599 0.06479965135890672 0  -1.3 1.592040838891559e-16 0  -1.298383997584599 -0.0647996513589064 0  -1.293540007975022 -0.1294382005745614 0  -1.285480074092667 -0.1937549460290268 0  -1.274224234203107 -0.2575899861592166 0  -1.259800472097801 -0.3207846169973817 0  -1.242244647521983 -0.3831817267341751 0  -1.221600407021681 -0.4446261863233693 0  -1.19791907543153 -0.5049652351571033 0  -1.171259528273145 -0.5640488608528255 0  -1.141688045381297 -0.6217301722077133 0  -1.109278146121802 -0.6778657643933473 0  -1.074110406610793 -0.7323160754827087 0  -1.036272259389799 -0.7849457334231204 0  -0.9958577760546716 -0.835623892592501 0  -0.9529674333787744 -0.884224559102195 0  -0.9077078635118949 -0.930626904037634 0  -0.8601915888759176 -0.974715563858054 0  -0.8105367424163539 -1.016380927208439 0  -0.7588667739052278 -1.055519407430613 0  -0.705310143025487 -1.092033700096003 0  -0.6499999999999996 -1.125833024919771 0  -0.5930738545591122 -1.156833351454909 0  -0.5346732340697951 -1.184957608005175 0  -0.4749433316763144 -1.210135873237465 0  -0.4140326453271904 -1.232305550017271 0  -0.352092608585906 -1.251411521035016 0  -0.2892772141432089 -1.267406285836371 0  -0.2257426309670094 -1.28025007891587 0  -0.1616468160417316 -1.289910968580223 0  -0.09714912166235215 -1.296364936335534 0  -0.0324098992594951 -1.299595936601061 0  0.03240989925949463 -1.299595936601061 0  0.09714912166235168 -1.296364936335534 0  0.16164681604173 -1.289910968580224 0  0.225742630967009 -1.280250078915871 0  0.2892772141432084 -1.267406285836371 0  0.3520926085859066 -1.251411521035016 0  0.4140326453271901 -1.232305550017271 0  0.474943331676313 -1.210135873237466 0  0.5346732340697947 -1.184957608005175 0  0.5930738545591118 -1.156833351454909 0  0.65 -1.12583302491977 0  0.7053101430254876 -1.092033700096003 0  0.7588667739052264 -1.055519407430614 0  0.8105367424163534 -1.016380927208439 0  0.8601915888759164 -0.9747155638580554 0  0.9077078635118949 -0.930626904037634 0  0.9529674333787747 -0.8842245591021949 0  0.9958577760546713 -0.8356238925925015 0  1.036272259389799 -0.7849457334231208 0  1.074110406610793 -0.7323160754827096 0  1.109278146121803 -0.6778657643933471 0  1.141688045381297 -0.6217301722077142 0  1.171259528273145 -0.5640488608528258 0  1.19791907543153 -0.5049652351571032 0  1.221600407021681 -0.4446261863233702 0  1.242244647521983 -0.3831817267341761 0  1.259800472097801 -0.3207846169973822 0  1.274224234203107 -0.257589986159217 0  1.285480074092667 -0.1937549460290267 0  1.293540007975022 -0.1294382005745625 0  1.298383997584599 -0.06479965135890688 0  0 -4.440892098500626e-16 0  0.160442176815071 0.6300960812521692 0  -0.4875093085969083 0.4302295175157829 0  0.6259003015969383 0.1761010396657574 0  -0.6163443459250439 -0.2070806870684201 0  0.4422497387300297 -0.4766318624512214 0  -0.1651298332029079 -0.648505666430226 0  0.8189438853637583 -0.2304150825179555 0  -0.2507603029198102 0.8129449354698079 0  0.6003674359718529 0.6155263281093956 0  -0.8427851813268934 0.1703727000051571 0  0.215282490560823 -0.8454675469838078 0  -0.594668169318339 -0.636246859894527 0  0.4895549038668353 -0.1377393928784784 0  -0.1123007616138176 0.3640701272902429 0  0.3889105130982073 0.8796360931829326 0  0.9548592553513221 0.08322114140573895 0  -0.8168496007475363 0.5077083546555385 0  -0.950257773369706 -0.1675560840730286 0  0.8696668783366902 0.4107195689914958 0  0.7713782630389786 -0.5689090711334497 0  0.08305601673296586 -0.3664251048113942 0  -0.2585510243062996 -0.2512301877467894 0  -0.3529632392496374 0.09624179385803094 0  -0.0893831643848421 -0.9680537574208501 0  0.3724237288119169 0.3818271887537146 0  -0.5848782931206066 0.7550468513685757 0  0.05742292153070552 0.95805288314466 0  0.5328369788813078 -0.7866270401801241 0  -0.3863868417150669 -0.8697047706862215 0  -0.863994608901242 -0.4713453365447924 0  0.289518876328037 0.09015077882666846 0  -0.3755032843093914 -0.4883540147674654 0  0.2043520117982718 -0.1463059295351929 0  0.2113350623439121 -0.5887871663889215 0  -0.5884672073608421 0.1954642699941742 0  0.1330175774523247 0.2922545020870543 0  -0.2710314325111518 0.560900159862426 0  -0.1708221820699401 1.042987609564629 0  0.9677041860701516 -0.4239080627809081 0  1.046773745021299 -0.1428781444533802 0  -0.4477853718431076 0.9569239706662713 0  0.8382741141851657 0.6488950347280424 0  -1.0093079002606 0.3391094196473194 0  -1.061775118878549 0.07956904518998247 0  0.6277945929389066 0.8541909655834014 0  -0.6197110892245364 -0.8682279745681279 0  0.7497696886701173 -0.01417038327143452 0  0.6471605753494983 -0.3788648512647379 0  -0.03267675766097933 0.7495915343004699 0  -0.8070470578549416 -0.7122232543882646 0  0.3681252617332567 -1.011415844142946 0  0.1246003056420572 -1.059982073474685 0  0.5930521940869109 0.3946468354720162 0  -0.7658798832005504 -0.04014006380097423 0  0.379738970696859 0.6027066813910938 0  -0.6497999903053765 -0.4239009460104715 0  0.01021307940384231 -0.7756934974999692 0  -0.1731284645783486 -0.4407646272440706 0  0.3514344643984019 -0.2912073414540673 0  -0.5626704917388248 -0.008559965884285342 0  0.7426461125357513 -0.8003821568703164 0  1.048418893983055 0.2949793389850982 0  -0.8017763743696761 0.7260203216310023 0  0.2687498458388911 1.055447065489461 0  -0.07422929820541552 0.5571903144642262 0  -0.4278682628445684 -0.1515225477734551 0  -1.035163094644204 -0.3558077189112244 0  -0.675042353564301 0.3717853169388543 0  -0.2707629265045749 -1.063352930791657 0  -0.3550750841050729 -0.6797677088207537 0  0.01300914656262454 -0.5550172834497266 0  -0.1476644782524558 0.1538067030322139 0  -0.3161221953543438 0.3051777363171427 0  0.3888461300512644 -0.6604708985566994 0  0.01986294941707991 -0.188123278977089 0  -0.4849750019204089 -0.3383423994594372 0  -0.4029779901229558 0.6983497439212034 0  -0.2031294531226654 -0.04960905233044624 0  -0.7915823344404023 -0.2910324943276809 0  0.5486952035628564 -0.9709868159522279 0  -0.6259074447139622 0.9303972157525489 0  1.122091670152867 0.01947260668074612 0  0.9473168878719344 -0.6017138959588901 0  -0.4884191858253131 -1.014212889862702 0  -0.01128344671203905 1.122567163536546 0  0.4392936536546092 0.205199903042713 0  0.4531968793985296 0.03208476523803298 0  -1.121008740225875 -0.1404806207764207 0  0.5220353646408635 0.9953705729268801 0  -0.9957465902388336 0.5177755085004655 0  0.9820464910847201 0.546688383572117 0  0.1330683928817295 0.8016561412162988 0  0.6604839745148062 -0.1619182234934192 0  0.7966280961183048 0.1517911754460319 0  0.6006062280298201 -0.5449119592375964 0  -0.6296783289469132 0.5646147613672701 0  0.08264427995827572 0.4663774986679379 0  0.4957351607651657 0.7484588615238452 0  0.7256575166861075 0.5008160014083303 0  -0.05654956453411328 -1.133077850292752 0  -0.8407473360161591 0.34084145555384 0  -0.9524778973353076 -0.6151754492000777 0  0.2433926587916736 -0.42211072167576 0  -0.1513704182915556 -0.813995750060624 0  0.255087098881607 0.4962741074959431 0  -0.1093434883820172 0.8927139313586433 0  0.9019585936277016 -0.070016483527614 0  0.8061421028804202 -0.4105685357500857 0  0.379843698696996 -0.847262587613488 0  0.02021690826116848 0.1671966742729145 0  -0.9112636177433847 0.02605186016090791 0  -0.1
[...]
<PointData  Scalars="f_29-2"> 
<DataArray  type="Float64"  Name="f_29-2"  format="ascii">1.0000000000000000e+00  1.0000000000000000e+00  1.0000000000000000e+00  1.0000000000000000e+00  1.0000000000000000e+00  1.0000000000000000e+00  1.0000000000000000e+00  1.0000000000000000e+00  1.0000000000000000e+00  1.0000000000000000e+00  1.0000000000000000e+00  1.0000000000000000e+00  1.0000000000000000e+00  1.0000000000000000e+00  1.0000000000000000e+00  1.0000000000000000e+00  1.0000000000000000e+00  1.0000000000000000e+00  1.0000000000000000e+00  1.0000000000000000e+00  1.0000000000000000e+00  1.0000000000000000e+00  1.0000000000000000e+00  1.0000000000000000e+00  1.0000000000000000e+00  1.0000000000000000e+00  1.0000000000000000e+00  1.0000000000000000e+00  1.0000000000000000e+00  1.0000000000000000e+00  1.0000000000000000e+00  1.0000000000000000e+00  1.0000000000000000e+00  1.0000000000000000e+00  1.0000000000000000e+00  1.0000000000000000e+00  1.0000000000000000e+00  1.0000000000000000e+00  1.0000000000000000e+00  1.0000000000000000e+00  1.0000000000000000e+00  1.0000000000000000e+00  1.0000000000000000e+00  1.0000000000000000e+00  1.0000000000000000e+00  1.0000000000000000e+00  1.0000000000000000e+00  1.0000000000000000e+00  1.0000000000000000e+00  1.0000000000000000e+00  1.0000000000000000e+00  1.0000000000000000e+00  1.0000000000000000e+00  1.0000000000000000e+00  1.0000000000000000e+00  1.0000000000000000e+00  1.0000000000000000e+00  1.0000000000000000e+00  1.0000000000000000e+00  1.0000000000000000e+00  1.0000000000000000e+00  1.0000000000000000e+00  1.0000000000000000e+00  1.0000000000000000e+00  1.0000000000000000e+00  1.0000000000000000e+00  1.0000000000000000e+00  1.0000000000000000e+00  1.0000000000000000e+00  1.0000000000000000e+00  1.0000000000000000e+00  1.0000000000000000e+00  1.0000000000000000e+00  1.0000000000000000e+00  1.0000000000000000e+00  1.0000000000000000e+00  1.0000000000000000e+00  1.0000000000000000e+00  1.0000000000000000e+00  1.0000000000000000e+00  1.0000000000000000e+00  1.0000000000000000e+00  1.0000000000000000e+00  1.0000000000000000e+00  1.0000000000000000e+00  1.0000000000000000e+00  1.0000000000000000e+00  1.0000000000000000e+00  1.0000000000000000e+00  1.0000000000000000e+00  1.0000000000000000e+00  1.0000000000000000e+00  1.0000000000000000e+00  1.0000000000000000e+00  1.0000000000000000e+00  1.0000000000000000e+00  1.0000000000000000e+00  1.0000000000000000e+00  1.0000000000000000e+00  1.0000000000000000e+00  1.0000000000000000e+00  1.0000000000000000e+00  1.0000000000000000e+00  1.0000000000000000e+00  1.0000000000000000e+00  1.0000000000000000e+00  1.0000000000000000e+00  1.0000000000000000e+00  1.0000000000000000e+00  1.0000000000000000e+00  1.0000000000000000e+00  1.0000000000000000e+00  1.0000000000000000e+00  1.0000000000000000e+00  1.0000000000000000e+00  1.0000000000000000e+00  1.0000000000000000e+00  1.0000000000000000e+00  1.0000000000000000e+00  1.0000000000000000e+00  1.0000000000000000e+00  1.0000000000000000e+00  1.0000000000000000e+00  1.0000000000000000e+00  1.0000000000000000e+00  1.0000000000000000e+00  6.2620155002213662e-01  8.9907490693326841e-01  8.9912735462454807e-01  8.9907501799641620e-01  8.9917007733534005e-01  8.9909495691113694e-01  9.0370689912350921e-01  9.4047578384170472e-01  9.4043834366176837e-01  9.4201854490927561e-01  9.4206225504103869e-01  9.4418773625016050e-01  9.4393628798534379e-01  8.5835593496468132e-01  8.0739187178176985e-01  9.5826717067088396e-01  9.5779253340455517e-01  9.5831439871880197e-01  9.5876075333117161e-01  9.5828809131074155e-01  9.5781765522222473e-01  8.0510414501799299e-01  7.9733276025660094e-01  8.0007189533645351e-01  9.5985101862725719e-01  8.6645426621688537e-01  9.5728524912143365e-01  9.5798631328460071e-01  9.5657628387906890e-01  9.5679883727686832e-01  9.6159681852960410e-01  7.6528522391200116e-01  8.9040580488162513e-01  7.3077450314702053e-01  8.9288117345495976e-01  8.9150690109144071e-01  7.7557854875136834e-01  8.9219552573922933e-01  9.7159773510860836e-01  9.7153091779304412e-01  9.7155406614123796e-01  9.7155866909484256e-01  9.7201208631225322e-01  9.7263551178439100e-01  9.7264297697393787e-01  9.7201111772460502e-01  9.7290584211655817e-01  9.2145434416543837e-01  9.2147538040578281e-01  9.2155700433313370e-01  9.7414643753062047e-01  9.7416068328264938e-01  9.7296528108684865e-01  9.1346011581383102e-01  9.2488934494097252e-01  9.1352415484985561e-01  9.2668035523878489e-01  9.2668196703620365e-01  8.4602458681791681e-01  8.3965105924345740e-01  8.7547303637848450e-01  9.7613865104187081e-01  9.7578680136582774e-01  9.7482048061668003e-01  9.7577304053910163e-01  8.7529883782905049e-01  8.3877302590059200e-01  9.7647810812316604e-01  9.2567840341131780e-01  9.7682229410997246e-01  9.2490458025061517e-01  8.7323833039753984e-01  7.0385965487077973e-01  8.3302422691497024e-01  9.2480683990705759e-01  6.8739990170187959e-01  8.8367094837183524e-01  9.3249210080161249e-01  7.0113610381355407e-01  9.3918686699737730e-01  9.7907823219336254e-01  9.7981178458806928e-01  9.7992631561612042e-01  9.7994138100721262e-01  9.8035580399830113e-01  9.7998566499784101e-01  8.5013587292754267e-01  8.3884251285418177e-01  9.8085652232059106e-01  9.8013216067084086e-01  9.7994171882835390e-01  9.8013518203455896e-01  9.3364154945243394e-01  9.0627694560125382e-01  9.3333245185191271e-01  9.3336598819073968e-01  9.3963520076343265e-01  8.4608760034343711e-01  9.4834806645483549e-01  9.4572385962351380e-01  9.8142046767988211e-01  9.4989752632089108e-01  9.8134197377370525e-01  8.5105512188898558e-01  9.3645695842438692e-01  8.7395618615419124e-01  9.4862534963005796e-01  9.4949014643912644e-01  9.4948711078489634e-01  9.5326479878948267e-01  6.7494437895546688e-01  9.5059253729224236e-01  7.7061303237264878e-01  9.2960755988153998e-01  9.3109625433304655e-01  9.5383658437706154e-01  9.5098119816202087e-01  9.8124725784265332e-01  8.8629156806245546e-01  9.8129875666445021e-01  9.5146287020553910e-01  7.8344545913873953e-01  9.1096102111840793e-01  8.0642480296477281e-01  6.6890426064674358e-01  8.8529070895037620e-01  9.1305053788204471e-01  9.0745595757607656e-01  9.8106854319172510e-01  8.5258617544664606e-01  9.5539910230100089e-01  9.5634840336299720e-01  9.7607446046984370e-01  9.5662871186936727e-01  9.7583214297719212e-01  9.7581092904011080e-01  9.7649534026594120e-01  9.6273094614442745e-01  9.6267280397082444e-01  9.1684168963959034e-01  9.2204725240750662e-01  7.0546356528812804e-01  7.9228596013403685e-01  9.8234796826360660e-01  9.6398872963554716e-01  9.5703089305006361e-01  9.1787831659350738e-01  9.7863384099744033e-01  9.6325609551557678e-01  9.8360588377440850e-01  9.8324996205538073e-01  9.8339850797048067e-01  9.6717552107055971e-01  8.2349874925363564e-01  6.9148788021093954e-01  8.9578923945436328e-01  8.5452954452037588e-01  9.5191030856018621e-01  9.2775365107075669e-01  9.7512462630201013e-01  9.7510837462155497e-01  8.5089014492035386e-01  8.5826072747830473e-01  8.2838503875384628e-01  9.7415431468055991e-01  9.3815565718695759e-01  8.9011052449855288e-01  8.5751696765942620e-01  7.6174662762580692e-01  8.8988800983649841e-01  9.2720065050582701e-01  8.9408996009184039e-01  9.2375637507930075e-01  9.5972770916082795e-01  9.8655389622512812e-01  9.8495027337606678e-01  9.8611946240947757e-01  9.8610990749314287e-01  8.3237951474046712e-01  9.6615415978237418e-01  9.8595038287739190e-01  9.8594218836487757e-01  9.8591759586019589e-01  9.8680622104359994e-01  7.8061209400860321e-01  8.8215570342153804e-01  9.6505454088360187e-01  8.8174587500897816e-01  9.3826904292883495e-01  9.6462877540158376e-01  9.6517950701914035e-01  9.3119136158489590e-01  9.0062580928966640e-01  9.8620962005711776e-01  9.8700879754325332e-01  9.6311664960002685e-01  9.6464998770967880e-01  9.8597634005794588e-01  9.8617331889617543e-01  9.6577202238593307e-01  9.6577873867797703e-01  9.8687410106458839e-01  6.5024870572201843e-01  9.5885393184037038e-01  9.6631632843588300e-01  9.0092032765689589e-01  8.2071267728200514e-01  9.6584324472918293e-01  9.8743528676303716e-01  9.6859957107929606e-01  9.8755972847223616e-01  9.1843233533556035e-01  9.7399611702059163e-01  9.5582217642892753e-01  9.8590251377589799e-01  9.7102530522323938e-01  8.7248096977924983e-01  9.8702684925141837e-01  9.8788208499053298e-01  9.8714015793565690e-01  9.8705064242415763e-01  9.8791552025822060e-01  9.1249223046997774e-01  9.4194395431879474e-01  7.7139771597249662e-01  7.2129257140545644e-01  6.5032284580414990e-01  9.2747534132043363e-01  9.4102774238135001e-01  9.0438865882172337e-01  9.1103046003434329e-01  9.3985115825872301e-01  9.3255302723608224e-01  7.8303927233634651e-01  7.8804856972323911e-01  9.8708033615566027e-01  9.8765086984059247e-01  9.8816735008936174e-01  9.8597291645445095e-01  8.6764663689268751e-01  9.3049162655945283e-01  9.4116160637808088e-01  9.3082791645627971e-01  9.8726684714504420e-01  9.8727677781788503e-01  9.3024225943334760e-01  9.0018548351442285e-01  9.2925562242575854e-01  8.8969821908751090e-01  9.0710247980623859e-01  9.8792156237166207e-01  9.0323981904709316e-01  9.8405126882960059e-01  9.8738526740463795e-01  9.8395514744670642e-01  8.1944535440475152e-01  9.3593798506168580e-01  9.4327561414517613e-01  9.1997123696374472e-01  9.6913826204578080e-01  9.6937068327525389e-01  9.8741548133346602e-01  9.5753069071020114e-01  8.7249349801434295e-01  8.4954231860963381e-01  9.8841359863108547e-01  9.8837445638821775e-01  9.1747900616986378e-01  9.4536524524167076e-01  9.8871791615436300e-01  8.7395803576427500e-01  9.5457651350789718e-01  9.8779145366609822e-01  8.6687936561655565e-01  6.4600028947255639e-01  8.6831091774680524e-01  9.7357706273410860e-01  9.8730157692251153e-01  9.3367914690486431e-01  9.4802151202874374e-01  9.6484454761729654e-01  9.6315709091552215e-01  8.6218339120562226e-01  8.1290233582149196e-01  9.8537839987418407e-01  7.3777103148684253e-01  8.6681835155089337e-01  9.3606623626713970e-01  8.7348563868031748e-01  7.9412199944828255e-01  8.5830906487666914e-01  7.4930199590635327e-01  9.8845110610998366e-01  9.8827085921122437e-01  9.4023141504333063e-01  9.8923804574281859e-01  9.6399399199062963e-01  9.8746539518427778e-01  9.5368503207610367e-01  9.4796872470705362e-01  7.5560261897702230e-01  9.5897058577598759e-01  9.5192590974420199e-01  9.6060256913293685e-01  9.8857834401662692e-01  9.1391362267236531e-01  9.4116185618410897e-01  9.2151113632029968e-01  8.9500711338037753e-01  8.9887486093900471e-01  9.1833982908973555e-01  9.0821746053291541e-01  9.8991461001698278e-01  9.4971789048255506e-01  8.8610022066561245e-01  6.4304862405131480e-01  9.6682877195509564e-01  9.4627231120336253e-01  9.9002483954690190e-01  8.4398537366333093e-01  9.8999943900092291e-01  9.5835151672821095e-01  9.3198812625210647e-01  9.2362045283968042e-01  9.0638936418090299e-01  9.1900846333218966e-01  9.4216811837674064e-01  9.1202770244986053e-01  6.5298904174619055e-01  9.4395400552511877e-01  9.1078470692103053e-01  9.5355133751398302e-01  9.8997957726408059e-01  9.8900264670071103e-01  8.0991170115099165e-01  8.5291230048249123e-01  7.3178723387305544e-01  9.8937875463476788e-01  9.5615770222974283e-01  9.3666372140894905e-01  9.5204539682577716e-01  8.8314066180170658e-01  9.7511749065161657e-01  8.9217880412330264e-01  8.8587217805370411e-01  8.4341416572651917e-01  8.0070462020040134e-01  9.5370492672221530e-01  9.6362757780813735e-01  9.6361284349660814e-01  8.4680923417352094e-01  8.7530949557513971e-01  9.9014399495986993e-01  9.9015258191048261e-01  7.3241585986802904e-01  9.9016167124872811e-01  9.9066700572234412e-01  9.6603464638272984e-01  9.8994733037276195e-01  8.5502600009825858e-01  9.4380497519160700e-01  9.8999961878859621e-01  9.7038482662611647e-01  8.2612950970827981e-01  9.6937090356039446e-01  9.6963146585235649e-01  9.7039892033627717e-01  9.7061391027848398e-01  9.7615242366703359e-01  9.9088117156711175e-01  9.7607370077263944e-01  9.6922266041169136e-01  9.6968461968110164e-01  9.7584096794895780e-01  9.6790124351086115e-01  9.6142839441846073e-01  9.9010700829549303e-01  9.4393915070301693e-01  9.6908081456031903e-01  9.7601638592288797e-01  6.9664669115869959e-01  8.1165912818433483e-01  9.4428212018982860e-01  9.0688252591040686e-01  9.6101892191538607e-01  9.2379127820684481e-01  9.1842084919130140e-01  9.4537132220903408e-01  8.5821048061865568e-01  9.4969449036848319e-01  9.7017351641923888e-01  9.1448952425507646e-01  8.8369105082661392e-01  9.1081127265787476e-01  9.4830085720496682e-01  9.2705747634357183e-01  9.1599812816975568e-01  9.1787621672315911e-01  8.8160021902005992e-01  7.5310117270259458e-01  9.2909054795575996e-01  9.0421406642477908e-01  8.7785644031945342e-01  9.7714061789272155e-01  9.6426571075089618e-01  8.8534651332871339e-01  9.7603309299715735e-01  9.7603849599108161e-01  9.5087027603911445e-01  9.4563279003408995e-01  8.0855316242943520e-01  9.4182598498805115e-01  9.7165606417032280e-01  9.9073168409682466e-01  9.7439053485551685e-01  8.5223469757335690e-01  8.1998572675982462e-01  8.7019088277524514e-01  9.6453413781435460e-01  9.6039745223420758e-01  9.5302772840693584e-01  9.9152704336140363e-01  9.7325283657562001e-01  9.7177701530534999e-01  9.9048690386234473e-01  8.8992204617173187e-01  9.9136738953706982e-01  9.7303086392478888e-01  7.2838386636007901e-01  9.9093170091376503e-01  9.7376265388388006e-01  9.9046853997844175e-01  9.9050949752843587e-01  9.3649401910507502e-01  9.3695280792800173e-01  9.1760040742639792e-01  9.2861229236557852e-01  9.4333968804298685e-01  9.9130451893095373e-01  8.7851692326607600e-01  8.1462579920885936e-01  7.7357841495517288e-01  9.2187742590772348e-01  9.6812463963926454e-01  9.3309754947882884e-01  9.9156938003455453e-01  9.3511144276822633e-01  8.6856454670788108e-01  9.4050528214582785e-01  9.4804390520055659e-01  8.9589160846453608e-01  8.6608589091461585e-01  9.3850288438922658e-01  7.6408370705911322e-01  7.5603353988310507e-01  9.8013288607485227e-01  9.7694153172327669e-01  9.6026352194256337e-01  7.1630396247934724e-01  8.1369150795454614e-01  9.5473784595523625e-01  9.3525094257199082e-01  9.5162873783059598e-01  9.3628383530927373e-01  8.7701735827208649e-01  9.6136908860801473e-01  9.1133196306301179e-01  9.9199816773353822e-01  6.3694230814363506e-01  9.3844379473687334e-01  9.9135454123913047e-01  8.2362649552393807e-01  9.5401510817345669e-01  9.6315096250486965e-01  9.9208341292145052e-01  9.1759846146178092e-01  9.5761155354403837e-01  9.3410119614979703e-01  9.6408772097004702e-01  8.3871174657510483e-01  9.0998807781539759e-01  9.5353141286885612e-01  8.1962381600058720e-01  9.7822031968143153e-01  8.7089096374860475e-01  9.7846254986435732e-01  9.7896924243939309e-01  6.3657867016982994e-01  7.0823293642974283e-01  7.0380015118179318e-01  9.6460429023636418e-01  9.4475525912840908e-01  9.5464799453158333e-01  8.8779173423975843e-01  9.0878867293642862e-01  9.3645138451932775e-01  9.6479236280375102e-01  9.8758675015277664e-01  8.1557777389422803e-01  9.1183240779697550e-01  9.2686782705392312e-01  9.0212815760013620e-01  9.5341281124162014e-01  9.1730838425990568e-01  9.2691953311768915e-01  9.9124351764988672e-01  9.6148835014826584e-01  9.0548982775294951e-01  9.6581151459989234e-01  9.4863788190881682e-01  9.3971549481215888e-01  9.1168344606271778e-01  9.9218235719349590e-01  8.9345439822741113e-01  8.5567562978222733e-01  8.1373634262231997e-01  9.4507886025829690e-01  9.0442067515998226e-01  9.4358345984488257e-01  9.0915594028446656e-01  9.6434996548780949e-01  9.7792670817537586e-01  9.9218171996596494e-01  8.4311405106322990e-01  9.8799793058655294e-01  8.1708026800215483e-01  8.3986657130825659e-01  8.3010350778719511e-01  8.5390810281604435e-01  9.5376213053460757e-01  8.2830649019167535e-01  8.5450144666749850e-01  9.9258600419692200e-01  8.4226303613084530e-01  8.7683165518826889e-01  9.7978804032378819e-01  9.7945275246121144e-01  9.7134633166154316e-01  9.9142221722384860e-01  9.9213895816135145e-01  9.1806893947789681e-01  9.2842774590483546e-01  9.1388583866102080e-01  9.0936038745160985e-01  9.2229052169081038e-01  9.3141556700871198e-01  9.7782318593800610e-01  9.8001271214936125e-01  9.7682499076718343e-01  9.5140877817960823e-01  9.4350383544705452e-01  7.8322825893138814e-01  9.6950123698585389e-01  7.4764159128783159e-01  8.9213779830067330e-01  9.8087690358902169e-01  9.7952916522742539e-01  9.0493010691514142e-01  9.2010099976939985e-01  8.4231025781185886e-01  9.5175780186831116e-01  9.7521371894777442e-01  9.8140072339769657e-01  9.7914022961464775e-01  8.0347192177928062e-01  9.6816940361403692e-01  9.3176169463520675e-01  9.2310210445231933e-01  9.5623486608319708e-01  9.0375968023310538e-01  9.2770057255880101e-01  9.8067186486510993e-01  9.5424053638913653e-01  9.6782083119793150e-01  9.5153728252698710e-01  9.4638911159598416e-01  9.6609353350756533e-01  9.5594132800929144e-01  9.9121852987716896e-01  9.9277849276766916e-01  9.9225958367067113e-01  9.7809073563928894e-01  9.6479659758677294e-01  9.6636589242792426e-01  9.4481538703869861e-01  9.1644566016238138e-01  9.4814034187270124e-01  8.3368240182870135e-01  8.9350262673103664e-01  9.8174980935669343e-01  9.6625380716068376e-01  9.7952400446928911e-01  9.7627249138948935e-01  9.9288136500067325e-01  9.9238061581106629e-01  9.9189320509913148e-01  9.8070852402173447e-01  9.7251808431627207e-01  9.6321604304961261e-01  9.9246234939832934e-01  8.4347656862387999e-01  9.1005497629132881e-01  9.7301133843678456e-01  9.7956199306906655e-01  9.5216944101100798e-01  9.6426206498403810e-01  9.4322214049703190e-01  9.9274553220264738e-01  6.4187240780829635e-01  9.6415812157445480e-01  7.5464554542231266e-01  9.5354424796746950e-01  9.7355037157150670e-01  6.7636640514517221e-01  9.9258183421017532e-01  9.4339366157125948e-01  9.2859186234022584e-01  8.0249486524336477e-01  9.9254047142549151e-01  9.8170035336061401e-01  9.8100028839494446e-01  9.5792734178858485e-01  9.9269994737913947e-01  9.9151784131903686e-01  9.9205512747693947e-01  9.9275153247849679e-01  9.6545125500093698e-01  6.6969341253714343e-01  6.8440088882167005e-01  8.6251324633814752e-01  9.8146032893775914e-01  8.8092104190243936e-01  9.9183269364091098e-01  9.0109630180877009e-01  9.9258838668435079e-01  9.0080026412551528e-01  9.6662422796968328e-01  9.9270699032145560e-01  9.6560498933193406e-01  9.9209914230111884e-01  9.8661882248456878e-01  6.9153731092168169e-01  9.4784090690827627e-01  9.9344728879907351e-01  9.9344056102296918e-01  9.5313769184443897e-01  9.6529218456435595e-01  9.7962872364133025e-01  9.5513396567090159e-01  8.8372745662196217e-01  6.8445956471110758e-01  7.6665527887652007e-01  7.6636245928552937e-01  9.8460025131300510e-01  8.6550907360393659e-01  8.7251612909348175e-01  8.9299173504055895e-01  9.4262912844593716e-01  9.9295673051935818e-01  9.9205582517530877e-01  9.9300292506688248e-01  8.9011309482843459e-01  9.7957983970227314e-01  7.1485178149029505e-01  9.9324180643632354e-01  9.9324622973674659e-01  9.6158849211332997e-01  9.8077152581778493e-01  9.8125511353987593e-01  9.9255639845851307e-01  9.8443173178543142e-01  8.4715447725695781e-01  9.7957450900397147e-01  9.9288514243597426e-01  9.1816294664182585e-01  9.9298030340856036e-01  9.6255834772911864e-01  9.3594661797092571e-01  9.7291953315483293e-01  7.2643921651097609e-01  7.9767288906754230e-01  7.9433803018224214e-01  8.2722403431863800e-01  9.2358969628083198e-01  9.3495188731363998e-01  9.9262338831785069e-01  9.8588216489143221e-01  9.8464468708521580e-01  9.9336624189337064e-01  9.6129957534838850e-01  9.9316473614019285e-01  9.1035120325682473e-01  9.7496536833903336e-01  9.6893495888743875e-01  9.3053419607974652e-01  9.4883303848315304e-01  9.4154629421474667e-01  8.8318512340507593e-01  8.9866579096475951e-01  7.8906809712700265e-01  9.9211559771742674e-01  9.1047690670780612e-01  9.0364637100968381e-01  9.8338213906092